HEADER
"PSFversion" "1.00"
"simulator" "spectre"
"version" "25.1.0.235.isr5"
"date" "5:24:46 PM, Wed Jul 22, 2026"
"design" "// tb_nmc3.scs -- behavioral gm-C THREE-STAGE nested-Miller (NMC) amplifier."
"analysis type" "stb"
"analysis name" "stb"
"analysis description" "Stability Analysis `stb': freq = (1 Hz -> 10 GHz)"
"xVecSorted" "ascending"
"tolerance.relative" 1.000000000000000e-03
"operating point producer" "stb"
"probe" "IPRB1"
"marginFilename" "stb.margin.stb"
TYPE
"sweep" FLOAT DOUBLE PROP(
"key" "sweep"
)
"LOOPGAIN" COMPLEX DOUBLE PROP(
"key" "gain"
)
"IMPEDANCE" COMPLEX DOUBLE PROP(
"key" "advprobe"
)
"ADMITTANCE" COMPLEX DOUBLE PROP(
"key" "advprobe"
)
SWEEP
"freq" "sweep" PROP(
"sweep_direction" 0
"units" "Hz"
"plot" 0
"grid" 3
)
TRACE
"loopGain" "LOOPGAIN"
"ZL" "IMPEDANCE"
"ZG" "IMPEDANCE"
"YL" "ADMITTANCE"
"YG" "ADMITTANCE"
VALUE
"freq" 1.000000000000000e+00
"loopGain" (1.576955319683810e-14 2.094336926362312e-09)
"ZL" (3.334322434264579e+05 -7.957747154492711e+10)
"ZG" (-3.277686730881859e+02 -1.389681318464943e-03)
"YL" (-2.356488245364423e-15 3.895574890475111e-10)
"YG" (1.800049999991139e-01 -2.043273012196677e-07)
"freq" 1.059253725177289e+00
"loopGain" (1.776848984426209e-14 2.218434191023524e-09)
"ZL" (8.032471320830825e+04 -7.512597752029443e+10)
"ZG" (-3.277686730924558e+02 -3.490203153053840e-04)
"YL" (-2.702326609527647e-15 4.126402214490262e-10)
"YG" (1.800050000009721e-01 -2.164344550029624e-07)
"freq" 1.122018454301963e+00
"loopGain" (1.998953640126595e-14 2.349884680902181e-09)
"ZL" (8.032471319794458e+04 -7.092349616964708e+10)
"ZG" (-3.277686730925456e+02 -3.697010691019783e-04)
"YL" (-3.041593910701422e-15 4.370906917306765e-10)
"YG" (1.800050000018838e-01 -2.292590026936092e-07)
"freq" 1.188502227437018e+00
"loopGain" (2.198861162637268e-14 2.489124101980290e-09)
"ZL" (-9.886169582738997e+04 -6.695609794288773e+10)
"ZG" (-3.277686730910604e+02 4.855599439451682e-04)
"YL" (-3.413457496854210e-15 4.629899434590828e-10)
"YG" (1.800050000027917e-01 -2.428434526402645e-07)
"freq" 1.258925411794167e+00
"loopGain" (2.487594748486898e-14 2.636613977450897e-09)
"ZL" (8.032471319965798e+04 -6.321063249692473e+10)
"ZG" (-3.277686730925121e+02 -4.288470020362798e-04)
"YL" (-3.817017743774504e-15 4.904238223269803e-10)
"YG" (1.800050000018093e-01 -2.572328318418831e-07)
"freq" 1.333521432163324e+00
"loopGain" (2.776337558864208e-14 2.792843177468541e-09)
"ZL" (2.226575371721238e+05 -5.967468510512859e+10)
"ZG" (-3.277686730897008e+02 -1.247667498727371e-03)
"YL" (-4.211296117332952e-15 5.194832607164139e-10)
"YG" (1.800050000017651e-01 -2.724748353797734e-07)
"freq" 1.412537544622754e+00
"loopGain" (3.153908561301812e-14 2.958329539566449e-09)
"ZL" (8.032471320409219e+04 -5.633653551291478e+10)
"ZG" (-3.277686730925499e+02 -4.654260706956851e-04)
"YL" (-4.795005753322743e-15 5.502645790851622e-10)
"YG" (1.800050000026585e-01 -2.886199843946922e-07)
"freq" 1.496235656094433e+00
"loopGain" (3.531491176731725e-14 3.133621585086246e-09)
"ZL" (-3.273426760456449e+04 -5.318511908314557e+10)
"ZG" (-3.277686730919900e+02 2.155638261249661e-04)
"YL" (-5.406999342179716e-15 5.828698052275482e-10)
"YG" (1.800050000016598e-01 -3.057217936216500e-07)
"freq" 1.584893192461113e+00
"loopGain" (3.975700203630820e-14 3.319300337295402e-09)
"ZL" (-2.043920950120398e+04 -5.020999012703193e+10)
"ZG" (-3.277686730921357e+02 1.467148048171978e-04)
"YL" (-6.085820214620579e-15 6.174070124823295e-10)
"YG" (1.800050000015974e-01 -3.238369487799986e-07)
"freq" 1.678804018122560e+00
"loopGain" (4.442128310913537e-14 3.515981247259626e-09)
"ZL" (-9.928716808533866e+04 -4.740128727727844e+10)
"ZG" (-3.277686730897109e+02 7.098640910781818e-04)
"YL" (-6.829868587597777e-15 6.539906779310928e-10)
"YG" (1.800050000034133e-01 -3.430254943327169e-07)
"freq" 1.778279410038923e+00
"loopGain" (4.997390663953897e-14 3.724316233810343e-09)
"ZL" (2.850843546810536e+02 -4.474970080444357e+10)
"ZG" (-3.277686730925416e+02 1.024907043895069e-05)
"YL" (-7.637349474407656e-15 6.927420618320201e-10)
"YG" (1.800050000033347e-01 -3.633510327090521e-07)
"freq" 1.883649089489801e+00
"loopGain" (5.597080343331707e-14 3.944995844397010e-09)
"ZL" (-6.234607539870794e+04 -4.224644175474982e+10)
"ZG" (-3.277686730906760e+02 5.050156959602658e-04)
"YL" (-8.586187145591725e-15 7.337896095779353e-10)
"YG" (1.800050000013604e-01 -3.848809349179625e-07)
"freq" 1.995262314968880e+00
"loopGain" (6.285608515824623e-14 4.178751543980315e-09)
"ZL" (-1.104084980672980e+05 -3.988321282260815e+10)
"ZG" (-3.277686730878826e+02 9.366216030920838e-04)
"YL" (-9.674121847187459e-15 7.772693774609748e-10)
"YG" (1.800050000050334e-01 -4.076865641119190e-07)
"freq" 2.113489039836647e+00
"loopGain" (7.040773240760948e-14 4.426358139545289e-09)
"ZL" (-8.966644027508210e+04 -3.765218084650456e+10)
"ZG" (-3.277686730887415e+02 8.001359058547855e-04)
"YL" (-1.085864895439859e-14 8.233254835457187e-10)
"YG" (1.800050000049224e-01 -4.318435117385313e-07)
"freq" 2.238721138568339e+00
"loopGain" (7.884781805918629e-14 4.688636348276169e-09)
"ZL" (2.982312153352509e+04 -3.554595084448234e+10)
"ZG" (-3.277686730930333e+02 -2.719762009397822e-04)
"YL" (-1.205698532736329e-14 8.721105854835573e-10)
"YG" (1.800050000047978e-01 -4.574318484934011e-07)
"freq" 2.371373705661655e+00
"loopGain" (8.884250765041597e-14 4.966455517904377e-09)
"ZL" (-9.694468706161942e+03 -3.355754150258126e+10)
"ZG" (-3.277686730922671e+02 1.127933678221059e-04)
"YL" (-1.358569209161346e-14 9.237863864456831e-10)
"YG" (1.800050000046580e-01 -4.845363895232805e-07)
"freq" 2.511886431509580e+00
"loopGain" (9.972570295993843e-14 5.260736508256709e-09)
"ZL" (-4.001980729115737e+04 -3.168036203679047e+10)
"ZG" (-3.277686730908002e+02 4.385440266845144e-04)
"YL" (-1.528131122212543e-14 9.785241711173504e-10)
"YG" (1.800050000045011e-01 -5.132469755621236e-07)
"freq" 2.660725059798810e+00
"loopGain" (1.114974439242220e-13 5.572454743534560e-09)
"ZL" (8.819935354405008e+03 -2.990819034568661e+10)
"ZG" (-3.277686730928434e+02 -8.642606955474368e-05)
"YL" (-1.705988596623429e-14 1.036505373450164e-09)
"YG" (1.800050000062111e-01 -5.436587708864650e-07)
"freq" 2.818382931264454e+00
"loopGain" (1.252679983773462e-13 5.902643445456551e-09)
"ZL" (1.659601285744921e+04 -2.823515238589519e+10)
"ZG" (-3.277686730930855e+02 -1.825809717255200e-04)
"YL" (-1.915672235764507e-14 1.097922178002697e-09)
"YG" (1.800050000060136e-01 -5.758725782347630e-07)
"freq" 2.985382618917960e+00
"loopGain" (1.405933273864956e-13 6.252397057975596e-09)
"ZL" (-4.872682752215966e+03 -2.665570270343610e+10)
"ZG" (-3.277686730924333e+02 7.578424143035409e-05)
"YL" (-2.152679229774623e-14 1.162978157032960e-09)
"YG" (1.800050000086211e-01 -6.099951737355183e-07)
"freq" 3.162277660168379e+00
"loopGain" (1.576955319683564e-13 6.622874874930502e-09)
"ZL" (-2.091829889593966e+04 -2.516460605214633e+10)
"ZG" (-3.277686730914042e+02 2.934927543197638e-04)
"YL" (-2.416441954075840e-14 1.231888945131422e-09)
"YG" (1.800050000055434e-01 -6.461396600738086e-07)
"freq" 3.349654391578276e+00
"loopGain" (1.770187646278149e-13 7.015304882629457e-09)
"ZL" (-3.246644868002045e+04 -2.375692004089837e+10)
"ZG" (-3.277686730903711e+02 4.735545355149645e-04)
"YL" (-2.714317351337324e-14 1.304882954170761e-09)
"YG" (1.800050000080934e-01 -6.844258419974208e-07)
"freq" 3.548133892335754e+00
"loopGain" (1.992292301978453e-13 7.430987830148808e-09)
"ZL" (2.000957589392632e+04 -2.242797875188597e+10)
"ZG" (-3.277686730936998e+02 -2.677153174879810e-04)
"YL" (-3.037596996874665e-14 1.382202130165007e-09)
"YG" (1.800050000106095e-01 -7.249806227057972e-07)
"freq" 3.758374042884441e+00
"loopGain" (2.232167853375529e-13 7.871301540798546e-09)
"ZL" (-9.268491306079475e+03 -2.117337727372399e+10)
"ZG" (-3.277686730921060e+02 1.720594476857723e-04)
"YL" (-3.413457496892231e-14 1.464102755354953e-09)
"YG" (1.800050000112013e-01 -7.679384253614598e-07)
"freq" 3.981071705534972e+00
"loopGain" (2.503137870831029e-13 8.337705479041618e-09)
"ZL" (4.746856395949858e+02 -1.998895710300694e+10)
"ZG" (-3.277686730928045e+02 1.534469121783710e-05)
"YL" (-3.829008485536450e-14 1.550856297686109e-09)
"YG" (1.800050000117503e-01 -8.134416378211126e-07)
"freq" 4.216965034285822e+00
"loopGain" (2.809644249602180e-13 8.831745588058878e-09)
"ZL" (9.158301228200477e+03 -1.887079235874330e+10)
"ZG" (-3.277686730935728e+02 -1.324276118081779e-04)
"YL" (-4.291234395670431e-14 1.642750310594578e-09)
"YG" (1.800050000141371e-01 -8.616410850962876e-07)
"freq" 4.466835921509631e+00
"loopGain" (3.153908561300830e-13 9.355059413915043e-09)
"ZL" (-2.115869711213537e+04 -1.781517677023451e+10)
"ZG" (-3.277686730904678e+02 4.269602003551501e-04)
"YL" (-4.826981064832726e-14 1.740089386079894e-09)
"YG" (1.800050000145841e-01 -9.126965290472481e-07)
"freq" 4.731512589614804e+00
"loopGain" (3.535932068828989e-13 9.909381533372295e-09)
"ZL" (1.248932472912920e+04 -1.681861139307820e+10)
"ZG" (-3.277686730941647e+02 -2.183374717689980e-04)
"YL" (-5.403002428493999e-14 1.843196164436677e-09)
"YG" (1.800050000187425e-01 -9.667771985172211e-07)
"freq" 5.011872336272723e+00
"loopGain" (3.966818419432263e-13 1.049654930334506e-08)
"ZL" (1.986635957615307e+04 -1.587779300969460e+10)
"ZG" (-3.277686730948657e+02 -3.857114146894538e-04)
"YL" (-6.057841817715461e-14 1.952412403473962e-09)
"YG" (1.800050000190609e-01 -1.024062348808632e-06)
"freq" 5.308844442309884e+00
"loopGain" (4.451010095108578e-13 1.111850895098287e-08)
"ZL" (8.479960688041627e+03 -1.498960318218113e+10)
"ZG" (-3.277686730941536e+02 -1.549605755124176e-04)
"YL" (-6.801890190600641e-14 2.068100111545497e-09)
"YG" (1.800050000202462e-01 -1.084741857846999e-06)
"freq" 5.623413251903491e+00
"loopGain" (4.992949771852931e-13 1.177732202462733e-08)
"ZL" (-1.572284140761633e+04 -1.415109791518582e+10)
"ZG" (-3.277686730904296e+02 4.063292248760309e-04)
"YL" (-7.641346388730589e-14 2.190642747324109e-09)
"YG" (1.800050000241750e-01 -1.149016853969111e-06)
"freq" 5.956621435290105e+00
"loopGain" (5.601521235427103e-13 1.247517222706295e-08)
"ZL" (8.989318906514542e+03 -1.335949789838315e+10)
"ZG" (-3.277686730947002e+02 -1.887756153594336e-04)
"YL" (-8.562205662857789e-14 2.320446490781552e-09)
"YG" (1.800050000280079e-01 -1.217100382808325e-06)
"freq" 6.309573444801933e+00
"loopGain" (6.287828961869963e-13 1.321437265358206e-08)
"ZL" (-2.326345011647457e+03 -1.261217929261785e+10)
"ZG" (-3.277686730930350e+02 1.025814094411116e-04)
"YL" (-9.614168139441118e-14 2.457941589614503e-09)
"YG" (1.800050000326761e-01 -1.289218114524601e-06)
"freq" 6.683439175686147e+00
"loopGain" (7.054095917051528e-13 1.399737345899461e-08)
"ZL" (9.955082571862256e+02 -1.190666503488649e+10)
"ZG" (-3.277686730937558e+02 1.334408148194578e-05)
"YL" (-1.078670450491411e-13 2.603583785230922e-09)
"YG" (1.800050000343945e-01 -1.365609090525057e-06)
"freq" 7.079457843841380e+00
"loopGain" (7.913647604552683e-13 1.482676997890809e-08)
"ZL" (-5.527992635659649e+03 -1.124061662642260e+10)
"ZG" (-3.277686730923213e+02 2.081887586140286e-04)
"YL" (-1.210494829572712e-13 2.757855823562469e-09)
"YG" (1.800050000397495e-01 -1.446526516247325e-06)
"freq" 7.498942093324560e+00
"loopGain" (8.879809872935295e-13 1.570531133222457e-08)
"ZL" (-6.925505011301408e+02 -1.061182638237204e+10)
"ZG" (-3.277686730936495e+02 6.921549365345911e-05)
"YL" (-1.357769826540883e-13 2.921269054903739e-09)
"YG" (1.800050000458954e-01 -1.532238601193134e-06)
"freq" 7.943282347242817e+00
"loopGain" (9.963688511787024e-13 1.663590953341369e-08)
"ZL" (9.503288915520636e+01 -1.001821011354144e+10)
"ZG" (-3.277686730940720e+02 4.765529496768526e-05)
"YL" (-1.523334825707982e-13 3.094365128938437e-09)
"YG" (1.800050000490417e-01 -1.623029446220354e-06)
"freq" 8.413951416451953e+00
"loopGain" (1.118083063709933e-12 1.762164914458524e-08)
"ZL" (-5.481020221655293e+03 -9.457800218548769e+09)
"ZG" (-3.277686730922376e+02 2.475100423821250e-04)
"YL" (-1.709985510851474e-13 3.277717790301057e-09)
"YG" (1.800050000567116e-01 -1.719199987013747e-06)
"freq" 8.912509381337458e+00
"loopGain" (1.254234296006380e-12 1.866579749971585e-08)
"ZL" (6.638377776138594e+02 -8.928739162118017e+09)
"ZG" (-3.277686730946712e+02 3.127982813783681e-05)
"YL" (-1.917670693076082e-13 3.471934779890239e-09)
"YG" (1.800050000622807e-01 -1.821068990740089e-06)
"freq" 9.440608762859236e+00
"loopGain" (1.407487586097472e-12 1.977181553443484e-08)
"ZL" (-2.032769546232426e+03 -8.429273317487497e+09)
"ZG" (-3.277686730938092e+02 1.404520562051483e-04)
"YL" (-2.152279538817697e-13 3.677659849726535e-09)
"YG" (1.800050000704378e-01 -1.928974112457123e-06)
"freq" 1.000000000000000e+01
"loopGain" (1.579175765730346e-12 2.094336925772542e-08)
"ZL" (-6.696964610777850e+02 -7.957747154572642e+09)
"ZG" (-3.277686730946641e+02 9.055951362272146e-05)
"YL" (-2.414843189062163e-13 3.895574896390373e-09)
"YG" (1.800050000783246e-01 -2.043273014704436e-06)
"freq" 1.059253725177289e+01
"loopGain" (1.771964003114442e-12 2.218434190323288e-08)
"ZL" (-8.849233403427497e+02 -7.512597752002474e+09)
"ZG" (-3.277686730948217e+02 1.062890069683746e-04)
"YL" (-2.709521055372533e-13 4.126402221516171e-09)
"YG" (1.800050000896800e-01 -2.164344552769538e-06)
"freq" 1.122018454301964e+01
"loopGain" (1.987851409876045e-12 2.349884680069374e-08)
"ZL" (3.925539303231885e+03 -7.092349616995280e+09)
"ZG" (-3.277686730978871e+02 -1.142998134556154e-04)
"YL" (-3.038796071865979e-13 4.370906925616153e-09)
"YG" (1.800050000997520e-01 -2.292590030510479e-06)
"freq" 1.188502227437019e+01
"loopGain" (2.230613541136132e-12 2.489124100992153e-08)
"ZL" (-3.091708383001975e+02 -6.695609794295544e+09)
"ZG" (-3.277686730958306e+02 9.064891721743824e-05)
"YL" (-3.410659658255090e-13 4.629899444436292e-09)
"YG" (1.800050001113281e-01 -2.428434530531225e-06)
"freq" 1.258925411794168e+01
"loopGain" (2.502249692405135e-12 2.636613976274877e-08)
"ZL" (4.746856567143760e+02 -6.321063249679891e+09)
"ZG" (-3.277686730968426e+02 5.273484732860312e-05)
"YL" (-3.826210647231981e-13 4.904238235040568e-09)
"YG" (1.800050001262477e-01 -2.572328323465098e-06)
"freq" 1.333521432163325e+01
"loopGain" (2.808311981964827e-12 2.792843176069211e-08)
"ZL" (6.183318092599458e+02 -5.967468510552451e+09)
"ZG" (-3.277686730974825e+02 5.029276303277177e-05)
"YL" (-4.293632545817108e-13 5.194832621188738e-09)
"YG" (1.800050001425726e-01 -2.724748359646637e-06)
"freq" 1.412537544622755e+01
"loopGain" (3.150799936822059e-12 2.958329537904963e-08)
"ZL" (-8.620150235477735e+02 -5.633653551255809e+09)
"ZG" (-3.277686730966857e+02 1.405247631859664e-04)
"YL" (-4.817788165076516e-13 5.502645807479352e-09)
"YG" (1.800050001593009e-01 -2.886199850606032e-06)
"freq" 1.496235656094434e+01
"loopGain" (3.535265935001851e-12 3.133621583111932e-08)
"ZL" (5.283686711224179e+01 -5.318511908301578e+09)
"ZG" (-3.277686730982035e+02 9.134312057434833e-05)
"YL" (-5.405400579577762e-13 5.828698072033393e-09)
"YG" (1.800050001773099e-01 -3.057217944537814e-06)
"freq" 1.584893192461114e+01
"loopGain" (3.966152285601927e-12 3.319300334949391e-08)
"ZL" (7.212143010527856e+02 -5.020999012697841e+09)
"ZG" (-3.277686730996794e+02 5.124315349474255e-05)
"YL" (-6.064236883341475e-13 6.174070148295068e-09)
"YG" (1.800050001984118e-01 -3.238369497333401e-06)
"freq" 1.678804018122561e+01
"loopGain" (4.450121916669287e-12 3.515981244470413e-08)
"ZL" (1.295485478152593e+03 -4.740128727767800e+09)
"ZG" (-3.277686731013152e+02 1.412871607980975e-05)
"YL" (-6.803888651924754e-13 6.539906807179303e-09)
"YG" (1.800050002234667e-01 -3.430254954797093e-06)
"freq" 1.778279410038923e+01
"loopGain" (4.993615905643035e-12 3.724316230492999e-08)
"ZL" (1.085480698650570e+03 -4.474970080440454e+09)
"ZG" (-3.277686731020474e+02 3.094840694747868e-05)
"YL" (-7.634951331963295e-13 6.927420651488779e-09)
"YG" (1.800050002514386e-01 -3.633510341080241e-06)
"freq" 1.883649089489801e+01
"loopGain" (5.602631458420674e-12 3.944995840457422e-08)
"ZL" (-2.842823036695798e+02 -4.224644175464349e+09)
"ZG" (-3.277686731010087e+02 1.403538102559364e-04)
"YL" (-8.567001966393776e-13 7.337896135261724e-09)
"YG" (1.800050002812801e-01 -3.848809365668351e-06)
"freq" 1.995262314968880e+01
"loopGain" (6.286718738806241e-12 4.178751539299488e-08)
"ZL" (-4.190128489988946e+02 -3.988321282278219e+09)
"ZG" (-3.277686731017947e+02 1.605576289851190e-04)
"YL" (-9.612969073916381e-13 7.772693821353452e-09)
"YG" (1.800050003147603e-01 -4.076865660004774e-06)
"freq" 2.113489039836647e+01
"loopGain" (7.053873872397381e-12 4.426358133982918e-08)
"ZL" (4.288711358363448e+02 -3.765218084673295e+09)
"ZG" (-3.277686731048165e+02 9.570465298413426e-05)
"YL" (-1.078510575041954e-12 8.233254891104631e-09)
"YG" (1.800050003545768e-01 -4.318435140293718e-06)
"freq" 2.238721138568340e+01
"loopGain" (7.914313738305492e-12 4.688636341661672e-08)
"ZL" (1.037214347168573e+03 -3.554595084437154e+09)
"ZG" (-3.277686731076774e+02 4.350257734136814e-05)
"YL" (-1.210055170431509e-12 8.721105921004380e-09)
"YG" (1.800050003977531e-01 -4.574318511781014e-06)
"freq" 2.371373705661656e+01
"loopGain" (8.880031917462211e-12 4.966455510042636e-08)
"ZL" (6.577372919769897e+02 -3.355754150244592e+09)
"ZG" (-3.277686731085144e+02 8.401059710000287e-05)
"YL" (-1.357729859160189e-12 9.237863943120053e-09)
"YG" (1.800050004460101e-01 -4.845363927389095e-06)
"freq" 2.511886431509581e+01
"loopGain" (9.963466467083893e-12 5.260736498913620e-08)
"ZL" (-3.061154320844018e+02 -3.168036203650728e+09)
"ZG" (-3.277686731076503e+02 1.900922057968479e-04)
"YL" (-1.523494704472658e-12 9.785241804786792e-09)
"YG" (1.800050005019911e-01 -5.132469794642330e-06)
"freq" 2.660725059798811e+01
"loopGain" (1.117905428013631e-11 5.572454732431319e-08)
"ZL" (2.393621102933415e+02 -2.990819034535321e+09)
"ZG" (-3.277686731113238e+02 1.405153780431247e-04)
"YL" (-1.709306038206807e-12 1.036505384561153e-08)
"YG" (1.800050005617160e-01 -5.436587754369211e-06)
"freq" 2.818382931264455e+01
"loopGain" (1.254367522753770e-11 5.902643432262238e-08)
"ZL" (2.655087384026605e+01 -2.823515238545667e+09)
"ZG" (-3.277686731128795e+02 1.747759955695703e-04)
"YL" (-1.917950480534312e-12 1.097922191210491e-08)
"YG" (1.800050006296662e-01 -5.758725836233010e-06)
"freq" 2.985382618917961e+01
"loopGain" (1.407398768235907e-11 6.252397042295019e-08)
"ZL" (2.391611314833269e+02 -2.665570270310637e+09)
"ZG" (-3.277686731162329e+02 1.582725197045892e-04)
"YL" (-2.151919820905270e-12 1.162978172706806e-08)
"YG" (1.800050007046367e-01 -6.099951801519199e-06)
"freq" 3.162277660168380e+01
"loopGain" (1.579086947863709e-11 6.622874856289417e-08)
"ZL" (3.427337842630866e+02 -2.516460605190817e+09)
"ZG" (-3.277686731196004e+02 1.533878834278986e-04)
"YL" (-2.414443503190388e-12 1.231888963789822e-08)
"YG" (1.800050007910485e-01 -6.461396677176608e-06)
"freq" 3.349654391578277e+01
"loopGain" (1.771808571859939e-11 7.015304860473038e-08)
"ZL" (2.429884304719968e+02 -2.375692004067832e+09)
"ZG" (-3.277686731224268e+02 1.768074343646439e-04)
"YL" (-2.709121370861905e-12 1.304882976346957e-08)
"YG" (1.800050008895146e-01 -6.844258511295151e-06)
"freq" 3.548133892335755e+01
"loopGain" (1.988029045520885e-11 7.430987803815071e-08)
"ZL" (3.066312287103981e+02 -2.242797875143759e+09)
"ZG" (-3.277686731263918e+02 1.783854956564917e-04)
"YL" (-3.039675401624047e-12 1.382202156508362e-08)
"YG" (1.800050009977790e-01 -7.249806335950578e-06)
"freq" 3.758374042884443e+01
"loopGain" (2.230591336626418e-11 7.871301509504105e-08)
"ZL" (2.283885632417189e+02 -2.117337727332590e+09)
"ZG" (-3.277686731300861e+02 2.010909165413520e-04)
"YL" (-3.410579731009932e-12 1.464102786666848e-08)
"YG" (1.800050011191981e-01 -7.679384381240001e-06)
"freq" 3.981071705534974e+01
"loopGain" (2.502738190474003e-11 8.337705441846722e-08)
"ZL" (1.552857496206576e+02 -1.998895710250420e+09)
"ZG" (-3.277686731340752e+02 2.249057613915981e-04)
"YL" (-3.826730259847899e-12 1.550856334910334e-08)
"YG" (1.800050012561351e-01 -8.134416530646011e-06)
"freq" 4.216965034285824e+01
"loopGain" (2.808067732821406e-11 8.831745543854374e-08)
"ZL" (1.913335614332439e+02 -1.887079235819052e+09)
"ZG" (-3.277686731394525e+02 2.315293691602750e-04)
"YL" (-4.293592594032326e-12 1.642750354806980e-08)
"YG" (1.800050014071241e-01 -8.616411031480380e-06)
"freq" 4.466835921509633e+01
"loopGain" (3.150755527802868e-11 9.355059361372988e-08)
"ZL" (1.528193395206654e+02 -1.781517676980391e+09)
"ZG" (-3.277686731448692e+02 2.525237229489688e-04)
"YL" (-4.817588341218267e-12 1.740089438658754e-08)
"YG" (1.800050015810085e-01 -9.126965506548102e-06)
"freq" 4.731512589614807e+01
"loopGain" (3.535177117036247e-11 9.909381470929587e-08)
"ZL" (2.789551150155024e+02 -1.681861139249150e+09)
"ZG" (-3.277686731526123e+02 2.425446779786195e-04)
"YL" (-5.405320668897830e-12 1.843196226907109e-08)
"YG" (1.800050017743009e-01 -9.667772241037131e-06)
"freq" 5.011872336272725e+01
"loopGain" (3.966596374656122e-11 1.049654922913278e-07)
"ZL" (1.166310861956191e+02 -1.587779300895438e+09)
"ZG" (-3.277686731580048e+02 2.914337359288603e-04)
"YL" (-6.064996331691470e-12 1.952412477733828e-08)
"YG" (1.800050019900349e-01 -1.024062379370182e-05)
"freq" 5.308844442309886e+01
"loopGain" (4.450543801222694e-11 1.111850886278060e-07)
"ZL" (1.280085984938515e+02 -1.498960318145077e+09)
"ZG" (-3.277686731661907e+02 3.056223114963926e-04)
"YL" (-6.805007831619634e-12 2.068100199807278e-08)
"YG" (1.800050022320966e-01 -1.084741893979560e-05)
"freq" 5.623413251903494e+01
"loopGain" (4.993615905396352e-11 1.177732191980167e-07)
"ZL" (2.850848105140422e+02 -1.415109791467886e+09)
"ZG" (-3.277686731775590e+02 2.870262949346207e-04)
"YL" (-7.635271140113878e-12 2.190642852214144e-08)
"YG" (1.800050025052143e-01 -1.149016896974453e-05)
"freq" 5.956621435290108e+01
"loopGain" (5.602897911636026e-11 1.247517210247701e-07)
"ZL" (1.437305162137982e+02 -1.335949789757163e+09)
"ZG" (-3.277686731855878e+02 3.391235308201279e-04)
"YL" (-8.566962066500707e-12 2.320446615437128e-08)
"YG" (1.800050028111738e-01 -1.217100433981917e-05)
"freq" 6.309573444801936e+01
"loopGain" (6.286563307191829e-11 1.321437250551362e-07)
"ZL" (1.531873084504718e+02 -1.261217929184005e+09)
"ZG" (-3.277686731971126e+02 3.567825299938201e-04)
"YL" (-9.612289685424436e-12 2.457941737729582e-08)
"YG" (1.800050031525765e-01 -1.289218175407295e-05)
"freq" 6.683439175686149e+01
"loopGain" (7.053651827300259e-11 1.399737328301315e-07)
"ZL" (8.888940140356739e+01 -1.190666503398834e+09)
"ZG" (-3.277686732085407e+02 3.959710474323436e-04)
"YL" (-1.078522576746195e-11 2.603583961315532e-08)
"YG" (1.800050035384820e-01 -1.365609162753107e-05)
"freq" 7.079457843841382e+01
"loopGain" (7.914335942146340e-11 1.482676976975247e-07)
"ZL" (1.786879377207039e+02 -1.124061662559827e+09)
"ZG" (-3.277686732248295e+02 3.928994791255694e-04)
"YL" (-1.210115137927002e-11 2.757856032821567e-08)
"YG" (1.800050039702457e-01 -1.446526602151381e-05)
"freq" 7.498942093324561e+01
"loopGain" (8.880031916682124e-11 1.570531108364193e-07)
"ZL" (2.076421057853101e+02 -1.061182638147938e+09)
"ZG" (-3.277686732417251e+02 4.070425388384784e-04)
"YL" (-1.357769845687057e-11 2.921269303618327e-08)
"YG" (1.800050044565872e-01 -1.532238703071751e-05)
"freq" 7.943282347242818e+01
"loopGain" (9.963488670562328e-11 1.663590923797407e-07)
"ZL" (1.351486176404383e+02 -1.001821011252355e+09)
"ZG" (-3.277686732578110e+02 4.549751108780952e-04)
"YL" (-1.523442766464235e-11 3.094365424530016e-08)
"YG" (1.800050049975371e-01 -1.623029567414595e-05)
"freq" 8.413951416451954e+01
"loopGain" (1.117929852796537e-10 1.762164879346336e-07)
"ZL" (2.036106290193843e+02 -9.457800217592242e+08)
"ZG" (-3.277686732803249e+02 4.579986742195987e-04)
"YL" (-1.709334044162276e-11 3.277718141610393e-08)
"YG" (1.800050056089311e-01 -1.719200131253134e-05)
"freq" 8.912509381337459e+01
"loopGain" (1.254338656799483e-10 1.866579708240560e-07)
"ZL" (1.858736517457810e+02 -8.928739161021489e+08)
"ZG" (-3.277686733025948e+02 4.920229515474446e-04)
"YL" (-1.917902552222889e-11 3.471935197427294e-08)
"YG" (1.800050062922054e-01 -1.821069162072219e-05)
"freq" 9.440608762859237e+01
"loopGain" (1.407392106701810e-10 1.977181503845109e-07)
"ZL" (2.107631457422801e+02 -8.429273316381925e+08)
"ZG" (-3.277686733292415e+02 5.111697532127711e-04)
"YL" (-2.151923861501669e-11 3.677660345974577e-08)
"YG" (1.800050070607707e-01 -1.928974316069127e-05)
"freq" 1.000000000000000e+02
"loopGain" (1.579115813415664e-10 2.094336866824920e-07)
"ZL" (1.655598017320700e+02 -7.957747153334413e+08)
"ZG" (-3.277686733560079e+02 5.603276738861509e-04)
"YL" (-2.414499514936104e-11 3.895575486172210e-08)
"YG" (1.800050079211164e-01 -2.043273256596769e-05)
"freq" 1.059253725177289e+02
"loopGain" (1.771795248873087e-10 2.218434120263653e-07)
"ZL" (1.527569330636992e+02 -7.512597750678176e+08)
"ZG" (-3.277686733874812e+02 5.991487383332520e-04)
"YL" (-2.709113446289856e-11 4.126402922480091e-08)
"YG" (1.800050088897467e-01 -2.164344840245519e-05)
"freq" 1.122018454301964e+02
"loopGain" (1.987989077101032e-10 2.349884596803537e-07)
"ZL" (1.457924644004314e+02 -7.092349615524483e+08)
"ZG" (-3.277686734230070e+02 6.379626903985497e-04)
"YL" (-3.039679485714316e-11 4.370907758665228e-08)
"YG" (1.800050099714469e-01 -2.292590371903632e-05)
"freq" 1.188502227437019e+02
"loopGain" (2.230564690781627e-10 2.489124002030311e-07)
"ZL" (1.925530994127375e+02 -6.695609792855269e+08)
"ZG" (-3.277686734665226e+02 6.525557323768012e-04)
"YL" (-3.410571846835414e-11 4.629900434561181e-08)
"YG" (1.800050111894107e-01 -2.428434936482999e-05)
"freq" 1.258925411794168e+02
"loopGain" (2.502727087624116e-10 2.636613858659287e-07)
"ZL" (1.712577786221078e+02 -6.321063248112837e+08)
"ZG" (-3.277686735105974e+02 7.023710004608587e-04)
"YL" (-3.826718407268556e-11 4.904239411778480e-08)
"YG" (1.800050125550090e-01 -2.572328805714548e-05)
"freq" 1.333521432163325e+02
"loopGain" (2.808107700070207e-10 2.792843036283119e-07)
"ZL" (1.628692830080096e+02 -5.967468508877672e+08)
"ZG" (-3.277686735608704e+02 7.487219485129397e-04)
"YL" (-4.293652721568424e-11 5.194834019708306e-08)
"YG" (1.800050140865882e-01 -2.724748933149265e-05)
"freq" 1.412537544622755e+02
"loopGain" (3.150751085928702e-10 2.958329371768882e-07)
"ZL" (1.528219084458059e+02 -5.633653549489595e+08)
"ZG" (-3.277686736171339e+02 7.990490023312944e-04)
"YL" (-4.817564578507409e-11 5.502647469677788e-08)
"YG" (1.800050158065718e-01 -2.886200532647732e-05)
"freq" 1.496235656094434e+02
"loopGain" (3.535201540706437e-10 3.133621385657769e-07)
"ZL" (1.772049027523250e+02 -5.318511906456268e+08)
"ZG" (-3.277686736837887e+02 8.311172633821215e-04)
"YL" (-5.405388892021478e-11 5.828700047647813e-08)
"YG" (1.800050177366671e-01 -3.057218754605582e-05)
"freq" 1.584893192461114e+02
"loopGain" (3.966560845962865e-10 3.319300100274319e-07)
"ZL" (1.569398782018166e+02 -5.020999010694951e+08)
"ZG" (-3.277686737534465e+02 8.938316340011227e-04)
"YL" (-6.064952712510530e-11 6.174072496266185e-08)
"YG" (1.800050198987213e-01 -3.238370460234154e-05)
"freq" 1.678804018122561e+02
"loopGain" (4.450552681047407e-10 3.515980965558817e-07)
"ZL" (1.459734208432368e+02 -4.740128725614720e+08)
"ZG" (-3.277686738326574e+02 9.544613674200401e-04)
"YL" (-6.804992280438944e-11 6.539909597758202e-08)
"YG" (1.800050223278258e-01 -3.430256099527921e-05)
"freq" 1.778279410038924e+02
"loopGain" (4.993602580253215e-10 3.724315899009462e-07)
"ZL" (1.570254643295970e+02 -4.474970078186086e+08)
"ZG" (-3.277686739246968e+02 1.002745498756946e-03)
"YL" (-7.635323649695040e-11 6.927423968040645e-08)
"YG" (1.800050250514595e-01 -3.633511701116942e-05)
"freq" 1.883649089489801e+02
"loopGain" (5.602915672098847e-10 3.944995446485248e-07)
"ZL" (1.580021488194666e+02 -4.224644173107601e+08)
"ZG" (-3.277686740263875e+02 1.061423937580099e-03)
"YL" (-8.566974749332447e-11 7.337900077024404e-08)
"YG" (1.800050281082258e-01 -3.848810982154327e-05)
"freq" 1.995262314968880e+02
"loopGain" (6.286574405512391e-10 4.178751071061107e-07)
"ZL" (1.595501881605076e+02 -3.988321279788348e+08)
"ZG" (-3.277686741405762e+02 1.123016275786565e-03)
"YL" (-9.612302547567902e-11 7.772698506155382e-08)
"YG" (1.800050315373412e-01 -4.076867581674812e-05)
"freq" 2.113489039836648e+02
"loopGain" (7.053654042824309e-10 4.426357577480664e-07)
"ZL" (1.625579740905903e+02 -3.765218082022737e+08)
"ZG" (-3.277686742691614e+02 1.186953785572173e-03)
"YL" (-1.078517890130019e-10 8.233260458965549e-08)
"YG" (1.800050353860239e-01 -4.318437423996517e-05)
"freq" 2.238721138568341e+02
"loopGain" (7.914329274611764e-10 4.688635680258969e-07)
"ZL" (1.736442141506870e+02 -3.554595081642399e+08)
"ZG" (-3.277686744153804e+02 1.246871272709330e-03)
"YL" (-1.210116075405460e-10 8.721112538461984e-08)
"YG" (1.800050397046046e-01 -4.574321226077201e-05)
"freq" 2.371373705661656e+02
"loopGain" (8.880018586204999e-10 4.966454723966468e-07)
"ZL" (1.716416465424424e+02 -3.355754147288896e+08)
"ZG" (-3.277686745763294e+02 1.322642532901374e-03)
"YL" (-1.357772417691784e-10 9.237871807989158e-08)
"YG" (1.800050445491598e-01 -4.845367152668305e-05)
"freq" 2.511886431509581e+02
"loopGain" (9.963550833231014e-10 5.260735564657631e-07)
"ZL" (1.672485991466549e+02 -3.168036200534807e+08)
"ZG" (-3.277686747559739e+02 1.405687309012491e-03)
"YL" (-1.523446982218492e-10 9.785251152075317e-08)
"YG" (1.800050499841215e-01 -5.132473628355323e-05)
"freq" 2.660725059798811e+02
"loopGain" (1.117928519292558e-09 5.572453622067878e-07)
"ZL" (1.678673262450683e+02 -2.990819031220132e+08)
"ZG" (-3.277686749592414e+02 1.488287552720706e-03)
"YL" (-1.709335119072280e-10 1.036506495496398e-07)
"YG" (1.800050560829741e-01 -5.436592310223541e-05)
"freq" 2.818382931264455e+02
"loopGain" (1.254336434796961e-09 5.902642112587645e-07)
"ZL" (1.667652462936110e+02 -2.823515235037270e+08)
"ZG" (-3.277686751865873e+02 1.577781770539753e-03)
"YL" (-1.917905696919689e-10 1.097923511573751e-07)