HEADER
"PSFversion" "1.00"
"simulator" "spectre"
"version" "25.1.0.235.isr5"
"date" "5:24:46 PM, Wed Jul 22, 2026"
"design" "// tb_nmc3.scs -- behavioral gm-C THREE-STAGE nested-Miller (NMC) amplifier."
"analysis type" "margin.stb"
"analysis name" "stb"
"analysis description" "Stability Analysis `stb': freq = (1 Hz -> 10 GHz)"
"xVecSorted" "ascending"
"tolerance.relative" 1.000000000000000e-03
"operating point producer" "stb"
"probe" "IPRB0"
TYPE
"dB" FLOAT DOUBLE PROP(
"key" "gain"
"units" "dB"
)
"Deg" FLOAT DOUBLE PROP(
"key" "gain"
"units" "Deg"
)
"Hz" FLOAT DOUBLE PROP(
"key" "gain"
"units" "Hz"
)
"stbstate" STRING *
VALUE
"gainMargin" "dB" 1.873042277773314e+01
"gainMarginFreq" "Hz" 2.847102257278042e+07
"phaseMargin" "Deg" 8.295126294366752e+01
"phaseMarginFreq" "Hz" 2.651292267206009e+06
"stb_state" "stbstate" "The circuit is stable. Gain and phase margin are both found."
END
