HEADER
"PSFversion" "1.00"
"simulator" "spectre"
"version" "25.1.0.235.isr5"
"date" "7:59:06 AM, Sun Jul 19, 2026"
"design" "// tb_ota2s_sugg.scs (SKY130) -- the compensation network CircuitInsight's"
"analysis type" "info"
"analysis name" "dcOpInfo"
"analysis description" "Circuit Information"
"xVecSorted" "unknown"
"tolerance.relative" 1.000000000000000e-03
"AnalysisName" "DC"
"AnalysisType" "dcOp"
"OpPointTemp.Value" 2.700000000000000e+01
"OpPointTemp.Units" "C"
TYPE
"bsim4" STRUCT(
"trise" FLOAT DOUBLE PROP(
"units" "C"
"description" "Temperature rise from ambient"
)
"dtemp" FLOAT DOUBLE PROP(
"units" "C"
"description" "Alias for trise"
)
"ids" FLOAT DOUBLE PROP(
"units" "A"
"description" "Resistive drain-to-source current"
)
"vgs" FLOAT DOUBLE PROP(
"units" "V"
"description" "Gate-source voltage"
)
"vds" FLOAT DOUBLE PROP(
"units" "V"
"description" "Drain-source voltage"
)
"vbs" FLOAT DOUBLE PROP(
"units" "V"
"description" "Bulk-source voltage"
)
"vgd" FLOAT DOUBLE PROP(
"units" "V"
"description" "Gate-drain voltage"
)
"vdb" FLOAT DOUBLE PROP(
"units" "V"
"description" "Drain-bulk voltage"
)
"vgb" FLOAT DOUBLE PROP(
"units" "V"
"description" "Gate-bulk voltage"
)
"vth" FLOAT DOUBLE PROP(
"units" "V"
"description" "Threshold voltage (alias=lv9)"
)
"vdsat" FLOAT DOUBLE PROP(
"units" "V"
"description" "Drain-source saturation voltage (alias=lv10)"
)
"gm" FLOAT DOUBLE PROP(
"units" "S"
"description" "Common-source transconductance (alias=lx7)"
)
"gds" FLOAT DOUBLE PROP(
"units" "S"
"description" "Common-source output conductance (alias=lx8)"
)
"gmbs" FLOAT DOUBLE PROP(
"units" "S"
"description" "Body-transconductance (alias=lx9)"
)
"betaeff" FLOAT DOUBLE PROP(
"units" "A/V^2"
"description" "Effective beta (alias LV21)"
)
"pro_Gamma" FLOAT DOUBLE PROP(
"description" "Gamma"
)
"cjd" FLOAT DOUBLE PROP(
"units" "F"
"description" "Drain-bulk junction capacitance (alias=lx29)"
)
"cjs" FLOAT DOUBLE PROP(
"units" "F"
"description" "Source-bulk junction capacitance (alias=lx28)"
)
"cgg" FLOAT DOUBLE PROP(
"units" "F"
"description" "Total gate capacitance, including intrinsic, overlap and fringing components (alias=lx82)"
)
"cgd" FLOAT DOUBLE PROP(
"units" "F"
"description" "Total gate-to-drain capacitance, including intrinsic, overlap, and fringing components (alias=lx83)"
)
"cgs" FLOAT DOUBLE PROP(
"units" "F"
"description" "Total gate-to-source capacitance, including intrinsic, overlap, and fringing components (alias=lx84)"
)
"cgb" FLOAT DOUBLE PROP(
"units" "F"
"description" "Total gate-to-bulk capacitance, including intrinsic and overlap components"
)
"cdg" FLOAT DOUBLE PROP(
"units" "F"
"description" "Total drain-to-gate capacitance, including intrinsic, overlap, and fringing components (alias=lx87)"
)
"cdd" FLOAT DOUBLE PROP(
"units" "F"
"description" "Drain capacitance, including intrinsic, overlap, and fringing components"
)
"cds" FLOAT DOUBLE PROP(
"units" "F"
"description" "Total drain-to-source capacitance (alias=lx86)"
)
"cdb" FLOAT DOUBLE PROP(
"units" "F"
"description" "Intrinsic drain-to-bulk capacitance"
)
"csg" FLOAT DOUBLE PROP(
"units" "F"
"description" "Total source-to-gate capacitance, including intrinsic, overlap, and fringing components"
)
"csd" FLOAT DOUBLE PROP(
"units" "F"
"description" "Total source-to-drain capacitance"
)
"css" FLOAT DOUBLE PROP(
"units" "F"
"description" "Source capacitance, including intrinsic, overlap, and fringing components"
)
"csb" FLOAT DOUBLE PROP(
"units" "F"
"description" "Intrinsic source-to-bulk capacitance"
)
"cbg" FLOAT DOUBLE PROP(
"units" "F"
"description" "Total bulk-to-gate capacitance, including intrinsic and overlap components (alias=lx88)"
)
"cbd" FLOAT DOUBLE PROP(
"units" "F"
"description" "Intrinsic bulk-to-drain capacitance"
)
"cbs" FLOAT DOUBLE PROP(
"units" "F"
"description" "Intrinsic bulk-to-source capacitance"
)
"cbb" FLOAT DOUBLE PROP(
"units" "F"
"description" "Bulk capacitance, including intrinsic and overlap components"
)
"covlgs" FLOAT DOUBLE PROP(
"units" "F/m"
"description" "Gate-source overlap and fringing capacitances (alias=lv36)"
)
"covlgd" FLOAT DOUBLE PROP(
"units" "F/m"
"description" "Gate-drain overlap and fringing capacitances (alias=lv37)"
)
"covlgb" FLOAT DOUBLE PROP(
"units" "F/m"
"description" "Gate-bulk overlap capacitances (alias=lv38)"
)
"cggbo" FLOAT DOUBLE PROP(
"units" "F"
"description" "CGGBO = dQg/dVg intrinsic gate capacitance (alias=lx18)"
)
"cgdbo" FLOAT DOUBLE PROP(
"units" "F"
"description" "CGDBO = -dQg/dVd intrinsic gate-to-drain capacitance (alias=lx19)"
)
"cgsbo" FLOAT DOUBLE PROP(
"units" "F"
"description" "CGSBO = -dQg/dVs intrinsic gate-to-source capacitance (alias=lx20)"
)
"cbgbo" FLOAT DOUBLE PROP(
"units" "F"
"description" "CBGBO = -dQb/dVg intrinsic bulk-to-gate capacitance (alias=lx21)"
)
"cbdbo" FLOAT DOUBLE PROP(
"units" "F"
"description" "CBDBO = -dQb/dVd intrinsic bulk-to-drain capacitance (alias=lx22)"
)
"cbsbo" FLOAT DOUBLE PROP(
"units" "F"
"description" "CBSBO = -dQb/dVs intrinsic bulk-to-source capacitance (alias=lx23)"
)
"cdgbo" FLOAT DOUBLE PROP(
"units" "F"
"description" "CDGBO = -dQd/dVg intrinsic drain-to-gate capacitance (alias=lx32)"
)
"cddbo" FLOAT DOUBLE PROP(
"units" "F"
"description" "CDDBO = dQd/dVd intrinsic drain capacitance (alias=lx33)"
)
"cdsbo" FLOAT DOUBLE PROP(
"units" "F"
"description" "CDSBO = -dQd/dVs intrinsic drain-to-source capacitance (alias=lx34)"
)
"ron" FLOAT DOUBLE PROP(
"units" "Ohm"
"description" "On-resistance, includes the parasitical rs and rd"
)
"id" FLOAT DOUBLE PROP(
"units" "A"
"description" "Resistive drain current"
)
"ig" FLOAT DOUBLE PROP(
"units" "A"
"description" "Total DC gate current"
)
"is" FLOAT DOUBLE PROP(
"units" "A"
"description" "Total DC source current"
)
"ib" FLOAT DOUBLE PROP(
"units" "A"
"description" "Total DC bulk current"
)
"ibulk" FLOAT DOUBLE PROP(
"units" "A"
"description" "Resistive bulk current"
)
"pwr" FLOAT DOUBLE PROP(
"units" "W"
"description" "Power at op point"
)
"gmoverid" FLOAT DOUBLE PROP(
"units" "1/V"
"description" "Gm/Ids"
)
"rdeff" FLOAT DOUBLE PROP(
"units" "Ohm"
"description" "Effective drain resistance"
)
"rseff" FLOAT DOUBLE PROP(
"units" "Ohm"
"description" "Effective source resistance"
)
"rgbd" FLOAT DOUBLE PROP(
"units" "Ohm"
"description" "Gate bias-dependent resistance"
)
"igidl" FLOAT DOUBLE PROP(
"units" "A"
"description" "Gate-induced drain leakage current (alias=lx70)"
)
"igisl" FLOAT DOUBLE PROP(
"units" "A"
"description" "Gate-induced source leakage current"
)
"igdt" FLOAT DOUBLE PROP(
"units" "A"
"description" "Gate Dielectric tunneling current (alias=lx71)"
)
"igd" FLOAT DOUBLE PROP(
"units" "A"
"description" "Gate-to-drain tunneling current (alias=lx39)"
)
"igs" FLOAT DOUBLE PROP(
"units" "A"
"description" "Gate-to-source tunneling current (alias=lx38)"
)
"igb" FLOAT DOUBLE PROP(
"units" "A"
"description" "Gate-to-bulk tunneling current (alias=lx66)"
)
"igbacc" FLOAT DOUBLE PROP(
"units" "A"
"description" "Gate-to-bulk tunneling current determined by ECB (alias=lx73)"
)
"igbinv" FLOAT DOUBLE PROP(
"units" "A"
"description" "Gate-to-bulk tunneling current determined by EVB (alias=lx74)"
)
"igcs" FLOAT DOUBLE PROP(
"units" "A"
"description" "Gate-to-channel (source side) tunneling current (alias=lx67)"
)
"igcd" FLOAT DOUBLE PROP(
"units" "A"
"description" "Gate-to-channel (drain side) tunneling current (alias=lx68)"
)
"isub" FLOAT DOUBLE PROP(
"units" "A"
"description" " Substrate current ( alias to LX69 )"
)
"gbs" FLOAT DOUBLE PROP(
"units" "S"
"description" "Bulk-source diode conductance (alias=lx11)"
)
"gbd" FLOAT DOUBLE PROP(
"units" "S"
"description" "Bulk-drain diode conductance (alias=lx10)"
)
"qg" FLOAT DOUBLE PROP(
"units" "Coul"
"description" "Total gate charge, including intrinsic, overlap and fringing components"
)
"qd" FLOAT DOUBLE PROP(
"units" "Coul"
"description" "Total drain charge, including intrinsic, overlap and fringing components"
)
"qs" FLOAT DOUBLE PROP(
"units" "Coul"
"description" "Total source charge, including intrinsic, overlap and fringing components"
)
"qb" FLOAT DOUBLE PROP(
"units" "Coul"
"description" "Total bulk charge, including intrinsic and overlap components"
)
"qjd" FLOAT DOUBLE PROP(
"units" "Coul"
"description" "Drain-bulk junction charge"
)
"qjs" FLOAT DOUBLE PROP(
"units" "Coul"
"description" "Source-bulk junction charge"
)
"qgdovl" FLOAT DOUBLE PROP(
"units" "Coul"
"description" "Gate-drain overlap and fringing charge"
)
"qgsovl" FLOAT DOUBLE PROP(
"units" "Coul"
"description" "Gate-source overlap and fringing charge"
)
"qgi" FLOAT DOUBLE PROP(
"units" "Coul"
"description" "Intrinsic gate charge"
)
"qdi" FLOAT DOUBLE PROP(
"units" "Coul"
"description" "Intrinsic drain charge"
)
"qinv" FLOAT DOUBLE PROP(
"units" "Coul"
"description" "Inversion charge"
)
"qsi" FLOAT DOUBLE PROP(
"units" "Coul"
"description" "Intrinsic source charge"
)
"qbi" FLOAT DOUBLE PROP(
"units" "Coul"
"description" "Intrinsic bulk charge"
)
"vfbeff" FLOAT DOUBLE PROP(
"units" "V"
"description" "Effective Flat-band voltage"
)
"ide" FLOAT DOUBLE PROP(
"units" "A"
"description" "Total DC drain current"
)
"ige" FLOAT DOUBLE PROP(
"units" "A"
"description" "Total DC gate current"
)
"ise" FLOAT DOUBLE PROP(
"units" "A"
"description" "Total DC source current"
)
"ibe" FLOAT DOUBLE PROP(
"units" "A"
"description" "Total DC bulk current"
)
"idb" FLOAT DOUBLE PROP(
"units" "A"
"description" "DC drain-bulk current"
)
"isb" FLOAT DOUBLE PROP(
"units" "A"
"description" "DC source-bulk current"
)
"vsb" FLOAT DOUBLE PROP(
"units" "V"
"description" "Source-bulk DC voltage"
)
"gmb" FLOAT DOUBLE PROP(
"units" "S"
"description" "DC bulk transconductance"
)
"vgt" FLOAT DOUBLE PROP(
"units" "V"
"description" "effective gate drive voltage including back bias and drain bias effects"
)
"vth_drive" FLOAT DOUBLE PROP(
"units" "V"
"description" "effective gate drive voltage including back bias and drain bias effects. Alias for Vgt"
)
"vdss" FLOAT DOUBLE PROP(
"units" "V"
"description" "Drain saturation voltage at actual bias"
)
"vsat_marg" FLOAT DOUBLE PROP(
"units" "V"
"description" "Vds margin"
)
"vdsat_marg" FLOAT DOUBLE PROP(
"units" "V"
"description" "Vds margin"
)
"self_gain" FLOAT DOUBLE PROP(
"description" "Transistor self gain"
)
"rout" FLOAT DOUBLE PROP(
"units" "Ohm"
"description" "AC output resistor. The parasitical rs and rd are excluded"
)
"beff" FLOAT DOUBLE PROP(
"units" "A/V^2"
"description" "Gain factor in saturation"
)
"fug" FLOAT DOUBLE PROP(
"units" "Hz"
"description" "Unity current gain frequency at actual bias"
)
"ft" FLOAT DOUBLE PROP(
"units" "Hz"
"description" "Unity current gain frequency at actual bias"
)
"rgate" FLOAT DOUBLE PROP(
"units" "Ohm"
"description" "MOS gate resistance"
)
"vearly" FLOAT DOUBLE PROP(
"units" "V"
"description" "Equivalent early voltage"
)
"Tk" FLOAT DOUBLE PROP(
"units" "K"
"description" "Absolute Device temperature including self-heating"
)
"Dtsh" FLOAT DOUBLE PROP(
"units" "K"
"description" "Device temperature rise due to self-heating"
)
"Iavl" FLOAT DOUBLE PROP(
"units" "A"
"description" "Weak avalanche current"
)
"vth0" FLOAT DOUBLE PROP(
"units" "V"
"description" "Zero-bias threshold voltage, excluding back-bias (body effect) and drain-bias effect (DIBL)"
)
"go" FLOAT DOUBLE PROP(
"units" "S"
"description" "Common-source output conductance"
)
"co" FLOAT DOUBLE PROP(
"units" "F"
"description" "Output Drain-Source capacitance"
)
"cm" FLOAT DOUBLE PROP(
"units" "F"
"description" "Capacitance element 1 for QS model"
)
"cmb" FLOAT DOUBLE PROP(
"units" "F"
"description" "Capacitance element 2 for QS model"
)
"cmx" FLOAT DOUBLE PROP(
"units" "F"
"description" "Capacitance element 3 for QS model"
)
"tau1" FLOAT DOUBLE PROP(
"units" "s"
"description" "Time constant related to NQS first frequency pole"
)
"fqslim" FLOAT DOUBLE PROP(
"units" "Hz"
"description" "QS model frequency limit"
)
"gmoveri" FLOAT DOUBLE PROP(
"units" "1/V"
"description" "Gm/Ids"
)
"ueff" FLOAT DOUBLE PROP(
"description" "ueff"
)
"OPdef" INT LONG PROP(
"units" ""
"description" "1: Device Physics notation. 2: Circuit Simulator notation"
)
"Ctype" INT LONG PROP(
"units" ""
"description" "Flag for channel type of MOSFET. 1: NMOS. -1: PMOS"
)
"SDint" INT LONG PROP(
"units" ""
"description" "Flag for source-drain interchange. 1: No S-D interchange, -1: S-D interchange"
)
"region" INT BYTE PROP(
"description" "Estimated operating region. %Z outputs the number (0-4) in a rawfile"
)
"reversed" INT BYTE PROP(
"description" "Reverse mode indicator"
)
"SDop" INT BYTE PROP(
"description" "Operation mode related to channel type and drain-source voltage sign"
)
) PROP(
"key" "inst"
)
"capacitor" STRUCT(
"trise" FLOAT DOUBLE PROP(
"units" "C"
"description" "Temperature rise from ambient"
)
"v" FLOAT DOUBLE PROP(
"units" "V"
"description" "Voltage at operating point"
)
"cap" FLOAT DOUBLE PROP(
"units" "F"
"description" "Capacitance at operating point"
)
) PROP(
"key" "inst"
)
"iprobe" STRUCT(
"i" FLOAT DOUBLE PROP(
"units" "A"
"description" "current through iprobe"
)
) PROP(
"key" "inst"
)
"isource" STRUCT(
"i" FLOAT DOUBLE PROP(
"units" "A"
"description" "Current through the source"
)
"v" FLOAT DOUBLE PROP(
"units" "V"
"description" "Voltage across the source"
)
"pwr" FLOAT DOUBLE PROP(
"units" "W"
"description" "Power dissipation"
)
) PROP(
"key" "inst"
)
"resistor" STRUCT(
"trise" FLOAT DOUBLE PROP(
"units" "C"
"description" "Temperature rise from ambient"
)
"v" FLOAT DOUBLE PROP(
"units" "V"
"description" "Voltage at operating point"
)
"i" FLOAT DOUBLE PROP(
"units" "A"
"description" "Current through the resistor"
)
"res" FLOAT DOUBLE PROP(
"units" "Ohm"
"description" "Resistance at operating point"
)
"pwr" FLOAT DOUBLE PROP(
"units" "W"
"description" "Power dissipation"
)
) PROP(
"key" "inst"
)
"vsource" STRUCT(
"v" FLOAT DOUBLE PROP(
"units" "V"
"description" "Voltage across the source"
)
"i" FLOAT DOUBLE PROP(
"units" "A"
"description" "Current through the source"
)
"pwr" FLOAT DOUBLE PROP(
"units" "W"
"description" "Power dissipation"
)
) PROP(
"key" "inst"
)
VALUE
"I0.MP0.msky130_fd_pr__pfet_01v8" "bsim4" (
0.000000000000000e+00
0.000000000000000e+00
-1.895271322507020e-05
-1.129891518837285e+00
-1.129891518837285e+00
0.000000000000000e+00
0.000000000000000e+00
-1.129891518837285e+00
-1.129891518837285e+00
-1.050680766318937e+00
-1.164738543110198e-01
2.536172817760893e-04
2.339676768316698e-07
6.568687516934980e-05
3.520192986953204e-03
0.000000000000000e+00
2.829660277531654e-14
4.272713030761844e-14
7.564314541473431e-13
-5.898984615764855e-15
-6.850687779750459e-13
-6.546369155653227e-14
-2.486639032238002e-13
5.911170976034579e-15
3.078347119677995e-13
-6.508197972003384e-14
-3.699045934996986e-13
2.179271265878019e-17
4.674343267535762e-13
-9.755152596653629e-14
-1.378629574238442e-13
-3.397907292850395e-17
-9.020026074632973e-14
2.280971972431024e-13
5.922419661471662e-15
5.827018027499497e-15
0.000000000000000e+00
7.446820164583719e-13
-7.196658826535830e-17
-6.791463583135742e-13
-1.378629574238442e-13
-3.397907292850395e-17
-9.020026074632973e-14
-2.428368851963007e-13
8.415294853508205e-17
3.078347119677995e-13
5.961634650508462e+04
-1.895271357717858e-05
nan
nan
nan
3.521084833884927e-13
2.141451032980634e-05
1.338158176954898e+01
4.250000000000000e-03
4.250000000000000e-03
0.000000000000000e+00
-0.000000000000000e+00
-0.000000000000000e+00
-0.000000000000000e+00
-0.000000000000000e+00
-0.000000000000000e+00
-0.000000000000000e+00
-0.000000000000000e+00
-0.000000000000000e+00
-0.000000000000000e+00
-0.000000000000000e+00
3.069362863036399e-13
2.281182008841590e-12
1.000000000000016e-12
-5.612589088617156e-13
2.121794766150786e-14
9.621881751213642e-14
4.438221436880714e-13
3.851831788509035e-14
3.441390373483056e-21
-1.573538504198870e-17
-8.634347976498546e-16
-5.554296403312214e-13
5.973626513103442e-14
0.000000000000000e+00
9.038955283859636e-14
4.053038223615907e-13
-1.671478112452303e-01
-1.895271583696138e-05
-0.000000000000000e+00
1.895271435496137e-05
1.482000002203409e-12
1.175063532161886e-12
1.837343765992721e-19
-0.000000000000000e+00
6.568687516934980e-05
-7.921075251834830e-02
nan
-1.164738543110198e-01
1.013417664526265e+00
nan
1.083984271718681e+03
4.274094667869268e+06
6.041338475404153e-03
5.336166790379422e+07
nan
0.000000000000000e+00
8.100570170039806e+01
nan
nan
nan
nan
nan
nan
nan
nan
nan
nan
nan
nan
1.093521996481376e-02
2147483647
2147483647
2147483647
2
0
-1
) PROP(
"model" "I0.MP1.sky130_fd_pr__pfet_01v8__model.3"
)
"I0.MP1.msky130_fd_pr__pfet_01v8" "bsim4" (
0.000000000000000e+00
0.000000000000000e+00
-1.894955645405553e-05
-1.129891518837285e+00
-1.116453963535627e+00
0.000000000000000e+00
-1.343755530165813e-02
-1.116453963535627e+00
-1.129891518837285e+00
-1.050680766315980e+00
-1.164738543209869e-01
2.535798548677326e-04
2.358845172918590e-07
6.567724760300392e-05
3.520192986952396e-03
0.000000000000000e+00
2.839297485217483e-14
4.272713030793013e-14
7.564443831891551e-13
-5.909377688653592e-15
-6.850725715543312e-13
-6.546243394617038e-14
-2.486777405933935e-13
5.922039030370913e-15
3.078393131239571e-13
-6.508361156093438e-14
-3.699062294690282e-13
2.266467578354310e-17
4.674355145836615e-13
-9.755194979041686e-14
-1.378604131267333e-13
-3.532601750086322e-17
-9.020225615328739e-14
2.280979952975216e-13
5.922419661471681e-15
5.834558314498744e-15
0.000000000000000e+00
7.446874052131847e-13
-7.481937415484873e-17
-6.791501518928595e-13
-1.378604131267333e-13
-3.532601750086322e-17
-9.020225615328739e-14
-2.428431822788948e-13
8.748071587216885e-17
3.078393131239571e-13
5.891715546179375e+04
-1.894955677112352e-05
nan
nan
nan
3.170680949919407e-13
2.115630776436423e-05
1.338183590114913e+01
4.250000000000000e-03
4.250000000000000e-03
0.000000000000000e+00
-0.000000000000000e+00
-0.000000000000000e+00
-0.000000000000000e+00
-0.000000000000000e+00
-0.000000000000000e+00
-0.000000000000000e+00
-0.000000000000000e+00
-0.000000000000000e+00
-0.000000000000000e+00
-0.000000000000000e+00
2.718958979239425e-13
2.281182009319615e-12
1.000000000000023e-12
-5.613382469175359e-13
2.167833621701839e-14
9.621911616723769e-14
4.434407945332799e-13
3.813743429938821e-14
3.440828275041377e-21
-2.476114572580798e-17
-8.634347976600950e-16
-5.554396521579828e-13
5.974644387185302e-14
0.000000000000000e+00
9.038985149306632e-14
4.053033567930634e-13
-1.671478112452303e-01
-1.894955900403121e-05
-0.000000000000000e+00
1.894955757050915e-05
1.433522058506243e-12
1.161625976874072e-12
1.837043670698799e-19
-0.000000000000000e+00
6.567724760300392e-05
-7.921075252130527e-02
nan
-1.164738543209869e-01
9.999801092146399e-01
nan
1.075016952274062e+03
4.239362597769415e+06
6.040332207756143e-03
5.335288127935386e+07
nan
0.000000000000000e+00
8.033405168591456e+01
nan
nan
nan
nan
nan
nan
nan
nan
nan
nan
nan
nan
1.093521996481125e-02
2147483647
2147483647
2147483647
2
0
-1
) PROP(
"model" "I0.MP1.sky130_fd_pr__pfet_01v8__model.3"
)
"I0.MP2.msky130_fd_pr__pfet_01v8" "bsim4" (
0.000000000000000e+00
0.000000000000000e+00
-8.239193380025559e-05
-1.116453963535627e+00
-8.999233520705879e-01
0.000000000000000e+00
-2.165306114650388e-01
-8.999233520705879e-01
-1.116453963535627e+00
-1.034541548192259e+00
-1.230874170225821e-01
1.075818844877198e-03
2.680909559504609e-06
2.896889739632509e-04
1.379449325960245e-02
0.000000000000000e+00
6.018441015656976e-14
8.545425613548745e-14
7.911383484522377e-13
-1.189963802658458e-14
-6.876793439178719e-13
-9.155936650778125e-14
-2.581536155386303e-13
1.196000107908780e-14
3.152285660995496e-13
-6.903495164000710e-14
-3.808952567147870e-13
9.672838376391562e-18
4.843077407036475e-13
-1.034221568272368e-13
-1.520894761988205e-13
-7.003589087960682e-17
-1.118569628853251e-13
2.640164749750252e-13
1.184480025497819e-14
1.180031673453176e-14
0.000000000000000e+00
7.674932314627278e-13
-9.932129205282439e-17
-6.758345436628938e-13
-1.520894761988205e-13
-7.003589087960682e-17
-1.118569628853251e-13
-2.463532988040985e-13
1.596843445560397e-16
3.152285660995496e-13
1.092246911272031e+04
-8.239193389060454e-05
nan
nan
nan
9.034941039220908e-14
7.414642533041111e-05
1.305733213502826e+01
2.125000000000000e-03
2.125000000000000e-03
0.000000000000000e+00
-0.000000000000000e+00
-0.000000000000000e+00
-0.000000000000000e+00
-0.000000000000000e+00
-0.000000000000000e+00
-0.000000000000000e+00
-0.000000000000000e+00
-0.000000000000000e+00
-0.000000000000000e+00
-0.000000000000000e+00
4.773983137891510e-18
3.562357147194125e-12
1.000000000021074e-12
-6.518396078986074e-13
1.394660048063996e-15
1.067951421637766e-13
5.436498056867668e-13
6.362149207857211e-14
1.496144414329651e-20
-3.399882917793227e-16
-1.706356486249254e-15
-6.380854998180695e-13
6.278192684241462e-14
0.000000000000000e+00
9.527527432890436e-14
4.800282986467505e-13
-2.561137635839391e-01
-8.239193569045072e-05
-0.000000000000000e+00
8.239193470017797e-05
9.902727624566053e-13
9.902673647670893e-13
6.237032837441988e-19
-0.000000000000000e+00
2.896889739632509e-04
-8.191241534336768e-02
nan
-1.230874170225821e-01
7.768359350480059e-01
nan
4.012887495824339e+02
3.730077340560435e+05
2.455925777918818e-02
2.164247092415544e+08
nan
0.000000000000000e+00
3.073282923638628e+01
nan
nan
nan
nan
nan
nan
nan
nan
nan
nan
nan
nan
1.086074132031214e-02
2147483647
2147483647
2147483647
2
0
-1
) PROP(
"model" "I0.MP2.sky130_fd_pr__pfet_01v8__model.4"
)
"I0.MN0.msky130_fd_pr__nfet_01v8" "bsim4" (
0.000000000000000e+00
0.000000000000000e+00
1.895271502624548e-05
6.714176822636980e-01
4.414495154970010e-01
-2.286589656657141e-01
2.299681667666971e-01
6.701084811627150e-01
9.000766479294121e-01
5.984968686103135e-01
9.366511094892954e-02
3.433978021349371e-04
1.740094265568674e-06
7.371952090187441e-05
5.872929879550942e-03
0.000000000000000e+00
1.836260051915304e-14
2.208621066596371e-14
4.219458611691154e-13
-1.108192429542880e-14
-3.624498781729292e-13
-4.841405870075742e-14
-1.444653024414519e-13
1.126218309229248e-14
1.650478208692232e-13
-3.184470152006384e-14
-2.097554410019237e-13
3.909858243564691e-16
2.566815940307186e-13
-4.731713885315146e-14
-6.772511772573990e-14
-5.712446212201540e-16
-5.927953672701267e-14
1.275758990739727e-13
9.852540000000001e-15
9.852540000000001e-15
1.980241840000000e-19
4.022405831449314e-13
-1.229384295428797e-15
-3.525973381729292e-13
-6.772491970155589e-14
-5.712446212201540e-16
-5.927953672701267e-14
-1.346127624414519e-13
1.409643092292482e-15
1.650478208692232e-13
2.329215180440835e+04
1.895271506320572e-05
nan
nan
nan
-7.388085901556731e-14
8.366666898898400e-06
1.811866013177553e+01
8.500000000000001e-03
8.500000000000001e-03
0.000000000000000e+00
0.000000000000000e+00
0.000000000000000e+00
0.000000000000000e+00
0.000000000000000e+00
0.000000000000000e+00
0.000000000000000e+00
0.000000000000000e+00
0.000000000000000e+00
0.000000000000000e+00
0.000000000000000e+00
9.847120985220212e-21
1.001184673358726e-12
1.000000002187257e-12
3.780336314347537e-13
-2.348165344381329e-14
-5.410582244374411e-14
-3.004461555471963e-13
-1.423364266410487e-14
-5.381650690680912e-15
0.000000000000000e+00
0.000000000000000e+00
3.691525130648039e-13
-3.544952395889729e-14
0.000000000000000e+00
-5.287230515043988e-14
-2.808306839554668e-13
-7.905314485587120e-01
1.895271617476324e-05
-0.000000000000000e+00
-1.895271520211493e-05
-9.726483058196719e-13
7.070685506804855e-13
2.655797452799074e-13
2.286589656657141e-01
7.371952090187441e-05
7.292081365338454e-02
nan
9.366511094892954e-02
3.477844045480714e-01
nan
1.973443674459283e+02
5.746815099544011e+05
7.128504741321676e-03
1.295271803478191e+08
nan
0.000000000000000e+00
1.089177554905014e+01
nan
nan
nan
nan
nan
nan
nan
nan
nan
nan
nan
nan
3.489088466978336e-02
2147483647
2147483647
2147483647
2
0
-1
) PROP(
"model" "I0.MN1.sky130_fd_pr__nfet_01v8__model.3"
)
"I0.MN1.msky130_fd_pr__nfet_01v8" "bsim4" (
0.000000000000000e+00
0.000000000000000e+00
1.894955780921082e-05
6.713410343342859e-01
4.548870707986593e-01
-2.286589656657141e-01
2.164539635356266e-01
6.835460364643734e-01
9.000000000000000e-01
5.984968686040921e-01
9.361808429050149e-02
3.433864824242172e-04
1.707903034899020e-06
7.371690259552802e-05
5.872951601355024e-03
0.000000000000000e+00
1.827713025786534e-14
2.208621066626461e-14
4.217921165336977e-13
-1.095026936739106e-14
-3.623944299413656e-13
-4.844741722494099e-14
-1.443100244295028e-13
1.111222042898488e-14
1.650084634750466e-13
-3.181065947452867e-14
-2.096962241241933e-13
3.481188970151196e-16
2.566524566946761e-13
-4.730435146749797e-14
-6.778586798000156e-14
-5.100699586089418e-16
-5.926649022835713e-14
1.275624281669676e-13
9.852540000000001e-15
9.852540000000001e-15
1.980241840000000e-19
4.020868385095137e-13
-1.097729367391060e-15
-3.525418899413656e-13
-6.778566995581756e-14
-5.100699586089418e-16
-5.926649022835713e-14
-1.344574844295028e-13
1.259680428984882e-15
1.650084634750466e-13
2.400515491593963e+04
1.894955784617106e-05
nan
nan
nan
-7.388085941435240e-14
8.619908878468026e-06
1.812108155142846e+01
8.500000000000001e-03
8.500000000000001e-03
0.000000000000000e+00
0.000000000000000e+00
0.000000000000000e+00
0.000000000000000e+00
0.000000000000000e+00
0.000000000000000e+00
0.000000000000000e+00
0.000000000000000e+00
0.000000000000000e+00
0.000000000000000e+00
0.000000000000000e+00
1.022173474595194e-20
1.001184673359680e-12
1.000000001463417e-12
3.778532885908282e-13
-2.307410976431454e-14
-5.408478884182983e-14
-3.006943899846838e-13
-1.447981550513302e-14
-5.381650690086421e-15
0.000000000000000e+00
0.000000000000000e+00
3.691060746407493e-13
-3.542130234859331e-14
0.000000000000000e+00
-5.285202672445719e-14
-2.808327455676988e-13
-7.905314485587120e-01
1.894955898460368e-05
-0.000000000000000e+00
-1.894955799851782e-05
-9.860858615197794e-13
7.205061060327604e-13
2.655797452529582e-13
2.286589656657141e-01
7.371690259552802e-05
7.284416573019381e-02
nan
9.361808429050149e-02
3.612689865081578e-01
nan
2.010573641521281e+02
5.855133339341626e+05
7.142324127798974e-03
1.295701221679571e+08
nan
0.000000000000000e+00
1.109521945765737e+01
nan
nan
nan
nan
nan
nan
nan
nan
nan
nan
nan
nan
3.489101371831221e-02
2147483647
2147483647
2147483647
2
0
-1
) PROP(
"model" "I0.MN1.sky130_fd_pr__nfet_01v8__model.3"
)
"MN2.msky130_fd_pr__nfet_01v8" "bsim4" (
0.000000000000000e+00
0.000000000000000e+00
3.999999872852915e-05
5.987486338175040e-01
5.987486338175040e-01
0.000000000000000e+00
0.000000000000000e+00
5.987486338175040e-01
5.987486338175040e-01
5.578302816168356e-01
7.265069285693018e-02
8.149460497906183e-04
4.317556156358677e-06
1.938326037436270e-04
2.379448980495291e-02
0.000000000000000e+00
3.767570870426611e-14
5.037150032521828e-14
4.324335590138362e-13
-1.999011745913672e-14
-3.547269563831703e-13
-5.771648517152925e-14
-1.452070397086774e-13
2.006033738612295e-14
1.591507565846342e-13
-3.400405426207978e-14
-2.072953699573270e-13
9.520727496296900e-17
2.580347853717989e-13
-5.083462268943493e-14
-7.993114934783190e-14
-1.654272019491918e-16
-6.245858557326286e-14
1.425551621230439e-13
1.970508000000000e-14
1.970508000000000e-14
1.960483680000000e-19
3.930232029654682e-13
-2.850374591367240e-16
-3.350218763831703e-13
-7.993095329946390e-14
-1.654272019491918e-16
-6.245858557326286e-14
-1.255019597086774e-13
3.552573861229468e-16
1.591507565846342e-13
1.496871632124476e+04
3.999999880250324e-05
nan
nan
nan
-7.397446731854381e-14
2.394994463570061e-05
2.037365189237807e+01
4.250000000000000e-03
4.250000000000000e-03
0.000000000000000e+00
0.000000000000000e+00
0.000000000000000e+00
0.000000000000000e+00
0.000000000000000e+00
0.000000000000000e+00
0.000000000000000e+00
0.000000000000000e+00
0.000000000000000e+00
0.000000000000000e+00
0.000000000000000e+00
5.363131156665713e-17
3.210712650718673e-12
1.000000036963830e-12
3.334424999602381e-13
-5.299640109292726e-15
-5.835270171708762e-14
-2.697901581338578e-13
-2.581310634358378e-14
-8.563049491889832e-21
0.000000000000000e+00
0.000000000000000e+00
3.216439928472810e-13
-3.111274310301291e-14
0.000000000000000e+00
-4.655432390073605e-14
-2.439769258435320e-13
-7.912093812232661e-01
4.000000000000000e-05
-0.000000000000000e+00
-3.999999932727690e-05
-6.727231011276353e-13
6.726689239965186e-13
5.458153464750543e-19
-0.000000000000000e+00
1.938326037436270e-04
4.091835220066842e-02
nan
7.265069285693018e-02
5.260979409605738e-01
nan
1.887516966259738e+02
2.316125057290224e+05
4.778083275603109e-02
2.999366942592926e+08
nan
0.000000000000000e+00
9.264500229160896e+00
nan
nan
nan
nan
nan
nan
nan
nan
nan
nan
nan
nan
3.491379577342243e-02
2147483647
2147483647
2147483647
2
0
-1
) PROP(
"model" "I0.MN2.sky130_fd_pr__nfet_01v8__model.4"
)
"I0.MN2.msky130_fd_pr__nfet_01v8" "bsim4" (
0.000000000000000e+00
0.000000000000000e+00
3.790227231889986e-05
5.987486338175040e-01
2.286589656657141e-01
0.000000000000000e+00
3.700896681517899e-01
2.286589656657141e-01
5.987486338175040e-01
5.578302813072643e-01
7.265069731473577e-02
7.755368267738075e-04
9.111262364449896e-06
1.845618804150070e-04
2.379448979762223e-02
0.000000000000000e+00
4.417242853480491e-14
5.037150061922437e-14
4.390852599842151e-13
-2.902641194206671e-14
-3.538755207412615e-13
-5.618332730088684e-14
-1.532854730158879e-13
3.097003439079794e-14
1.583274995570469e-13
-3.601206093195696e-14
-2.097290661894358e-13
3.466176323717502e-15
2.577010144089720e-13
-5.143812454325371e-14
-7.607072077889145e-14
-5.409798772448735e-15
-6.215299322475733e-14
1.436335127760975e-13
1.970508000000000e-14
1.970508000000000e-14
1.960483680000000e-19
3.996749039358471e-13
-9.321331942066708e-15
-3.341704407412615e-13
-7.607052473052345e-14
-5.409798772448735e-15
-6.215299322475733e-14
-1.335803930158879e-13
1.126495439079794e-14
1.583274995570469e-13
6.032856387654993e+03
3.790227239274111e-05
nan
nan
nan
-7.384160474154544e-14
8.666694401704331e-06
2.046148632590263e+01
4.250000000000000e-03
4.250000000000000e-03
0.000000000000000e+00
0.000000000000000e+00
0.000000000000000e+00
0.000000000000000e+00
0.000000000000000e+00