HEADER
"PSFversion" "1.00"
"simulator" "spectre"
"version" "25.1.0.235.isr5"
"date" "7:59:06 AM, Sun Jul 19, 2026"
"design" "// tb_ota2s_sugg.scs (SKY130) -- the compensation network CircuitInsight's"
"analysis type" "stb"
"analysis name" "stb"
"analysis description" "Stability Analysis `stb': freq = (1 mHz -> 10 GHz)"
"xVecSorted" "ascending"
"tolerance.relative" 1.000000000000000e-03
"operating point producer" "stb"
"probe" "IPRB0"
"marginFilename" "stb.margin.stb"
TYPE
"sweep" FLOAT DOUBLE PROP(
"key" "sweep"
)
"LOOPGAIN" COMPLEX DOUBLE PROP(
"key" "gain"
)
"IMPEDANCE" COMPLEX DOUBLE PROP(
"key" "advprobe"
)
"ADMITTANCE" COMPLEX DOUBLE PROP(
"key" "advprobe"
)
SWEEP
"freq" "sweep" PROP(
"sweep_direction" 0
"units" "Hz"
"plot" 0
"grid" 3
)
TRACE
"loopGain" "LOOPGAIN"
"ZL" "IMPEDANCE"
"ZG" "IMPEDANCE"
"YL" "ADMITTANCE"
"YG" "ADMITTANCE"
VALUE
"freq" 1.000000000000000e-03
"loopGain" (-1.878342801899998e+04 2.101569364306375e-02)
"ZL" (4.424547621096275e+13 -9.626134036246175e+07)
"ZG" (2.355559124385072e+09 -2.489517391558232e+03)
"YL" (1.899439926988825e-01 -2.481052011892287e-09)
"YG" (1.727530550054531e-13 9.237956054338934e-16)
"freq" 1.122018454301963e-03
"loopGain" (-1.878342801899390e+04 2.357999609203876e-02)
"ZL" (4.424547621090830e+13 -1.080510860908245e+08)
"ZG" (2.355559124383661e+09 -2.795631512165637e+03)
"YL" (1.899439926988825e-01 -2.783786143423194e-09)
"YG" (1.727530550085775e-13 1.036512750244708e-15)
"freq" 1.258925411794167e-03
"loopGain" (-1.878342801894706e+04 2.645719077232874e-02)
"ZL" (4.421832341782998e+13 -1.210395386465790e+08)
"ZG" (2.354113552654612e+09 -3.128363430499416e+03)
"YL" (1.899439926988824e-01 -3.123459425753554e-09)
"YG" (1.727530550125108e-13 1.162989073341623e-15)
"freq" 1.412537544622754e-03
"loopGain" (-1.878342801897659e+04 2.968545629583215e-02)
"ZL" (4.424547621075391e+13 -1.360355398426640e+08)
"ZG" (2.355559124379664e+09 -3.519879223716698e+03)
"YL" (1.899439926988824e-01 -3.504579116958938e-09)
"YG" (1.727530550174626e-13 1.304895240131664e-15)
"freq" 1.584893192461113e-03
"loopGain" (-1.878342801896444e+04 3.330762979123777e-02)
"ZL" (4.423189564704552e+13 -1.525252473031511e+08)
"ZG" (2.354836116663671e+09 -3.944841032287688e+03)
"YL" (1.899439926988824e-01 -3.932202443790816e-09)
"YG" (1.727530550236965e-13 1.464118150095675e-15)
"freq" 1.778279410038922e-03
"loopGain" (-1.878342833979032e+04 3.737177656863123e-02)
"ZL" (4.420475951461176e+13 -1.708825515043032e+08)
"ZG" (2.353391431920676e+09 -4.415557799733358e+03)
"YL" (1.899439926990552e-01 -4.412003707987088e-09)
"YG" (3.815811706419040e-23 1.642770097862027e-15)
"freq" 1.995262314968878e-03
"loopGain" (-1.878342833977106e+04 4.193182299181013e-02)
"ZL" (4.420475951444053e+13 -1.917546894191177e+08)
"ZG" (2.353391431916249e+09 -4.955472013765612e+03)
"YL" (1.899439926990551e-01 -4.950349580816532e-09)
"YG" (4.803838848736097e-23 1.843224696413047e-15)
"freq" 2.238721138568338e-03
"loopGain" (-1.878342801890566e+04 4.704827760662403e-02)
"ZL" (4.424547621012217e+13 -2.155321200774824e+08)
"ZG" (2.355559124363326e+09 -5.574922916444316e+03)
"YL" (1.899439926988824e-01 -5.554383584914209e-09)
"YG" (1.727530550538631e-13 2.068124195473535e-15)
"freq" 2.511886431509578e-03
"loopGain" (-1.878342833975549e+04 5.278903752301710e-02)
"ZL" (4.423189564625119e+13 -2.416580000714797e+08)
"ZG" (2.354836116640996e+09 -6.247987066019024e+03)
"YL" (1.899439926990551e-01 -6.232120884552270e-09)
"YG" (7.613563862362674e-23 2.320480143467908e-15)
"freq" 2.818382931264451e-03
"loopGain" (-1.878342801891508e+04 5.923027224761740e-02)
"ZL" (4.428626798228580e+13 -2.718461126563586e+08)
"ZG" (2.357730813762455e+09 -7.038569810300502e+03)
"YL" (1.899439926988823e-01 -6.992554641893991e-09)
"YG" (1.727530550892351e-13 2.603607216235914e-15)
"freq" 3.162277660168376e-03
"loopGain" (-1.878342801886673e+04 6.645745852608272e-02)
"ZL" (4.427266236957237e+13 -3.047828657295823e+08)
"ZG" (2.357006472495728e+09 -7.887537188376426e+03)
"YL" (1.899439926988822e-01 -7.845775350925931e-09)
"YG" (1.727530551140530e-13 2.921301365439718e-15)
"freq" 3.548133892335751e-03
"loopGain" (-1.878342801888420e+04 7.456649487161023e-02)
"ZL" (4.431350430847733e+13 -3.427208913708636e+08)
"ZG" (2.359180832690892e+09 -8.881201005440369e+03)
"YL" (1.899439926988821e-01 -8.803104732034907e-09)
"YG" (1.727530551452960e-13 3.277742596243260e-15)
"freq" 3.981071705534968e-03
"loopGain" (-1.878342833964872e+04 8.366498619607754e-02)
"ZL" (4.428626798062509e+13 -3.839904219774113e+08)
"ZG" (2.357730813717312e+09 -9.942115360258069e+03)
"YL" (1.899439926990548e-01 -9.877245964515759e-09)
"YG" (1.912437732892270e-22 3.677707337905331e-15)
"freq" 4.466835921509626e-03
"loopGain" (-1.878342833955224e+04 9.387365849105452e-02)
"ZL" (4.429988195700645e+13 -4.310859687040137e+08)
"ZG" (2.358455600297723e+09 -1.116447889382182e+04)
"YL" (1.899439926990547e-01 -1.108245224986662e-08)
"YG" (2.407616672488863e-22 4.126455860286321e-15)
"freq" 5.011872336272717e-03
"loopGain" (-1.878342801870713e+04 1.053279735709555e-01)
"ZL" (4.438174191639426e+13 -4.856576269150705e+08)
"ZG" (2.362813695004780e+09 -1.260725970112953e+04)
"YL" (1.899439926988817e-01 -1.243471594324234e-08)
"YG" (1.727530552964856e-13 4.629931311241624e-15)
"freq" 5.623413251903483e-03
"loopGain" (-1.878342801859338e+04 1.181799301384142e-01)
"ZL" (4.439541466360738e+13 -5.450188826071721e+08)
"ZG" (2.363541610465192e+09 -1.414643224067065e+04)
"YL" (1.899439926988814e-01 -1.395198076234145e-08)
"YG" (1.727530553749672e-13 5.194889091883346e-15)
"freq" 6.309573444801923e-03
"loopGain" (-1.878342801847922e+04 1.326000625093576e-01)
"ZL" (4.443648350058254e+13 -6.127260797623224e+08)
"ZG" (2.365728050397037e+09 -1.592126784140844e+04)
"YL" (1.899439926988812e-01 -1.565437988939479e-08)
"YG" (1.727530554737667e-13 5.828743158180352e-15)
"freq" 7.079457843841368e-03
"loopGain" (-1.878342833919555e+04 1.487797223363963e-01)
"ZL" (4.449136029182195e+13 -6.891732877871808e+08)
"ZG" (2.368649603961723e+09 -1.793043442318207e+04)
"YL" (1.899439926990537e-01 -1.756450312661175e-08)
"YG" (6.047680897732973e-22 6.540014690981720e-15)
"freq" 7.943282347242802e-03
"loopGain" (-1.878342833900795e+04 1.669335940787839e-01)
"ZL" (4.454637279015627e+13 -7.751372258402370e+08)
"ZG" (2.371578382375291e+09 -2.019191807613767e+04)
"YL" (1.899439926990533e-01 -1.970769664869864e-08)
"YG" (7.613574780197602e-22 7.338012941044904e-15)
"freq" 8.912509381337440e-03
"loopGain" (-1.878342801793937e+04 1.873025667670291e-01)
"ZL" (4.464297272757831e+13 -8.734677167946452e+08)
"ZG" (2.376721210251634e+09 -2.280404070508420e+04)
"YL" (1.899439926988799e-01 -2.211239933158697e-08)
"YG" (1.727530559518744e-13 8.233348122733151e-15)
"freq" 9.999999999999981e-03
"loopGain" (-1.878342833849283e+04 2.101569435967335e-01)
"ZL" (4.472610675048153e+13 -9.839048597063683e+08)
"ZG" (2.381147134171496e+09 -2.574243124181481e+04)
"YL" (1.899439926990521e-01 -2.481052011893982e-08)
"YG" (1.206665385339307e-21 9.237973470924738e-15)
"freq" 1.122018454301961e-02
"loopGain" (-1.878342833819745e+04 2.357999690089737e-01)
"ZL" (4.490729695584559e+13 -1.112756276770907e+09)
"ZG" (2.390793414087038e+09 -2.923072836727592e+04)
"YL" (1.899439926990512e-01 -2.783786143427721e-08)
"YG" (1.519101234719801e-21 1.036517341459387e-14)
"freq" 1.258925411794165e-02
"loopGain" (-1.878342833778361e+04 2.645719167571522e-01)
"ZL" (4.508996117255470e+13 -1.258745463689856e+09)
"ZG" (2.400518168076212e+09 -3.320414216200541e+04)
"YL" (1.899439926990502e-01 -3.123459425756305e-08)
"YG" (1.912435688164803e-21 1.162991914110333e-14)
"freq" 1.412537544622751e-02
"loopGain" (-1.878342801633015e+04 2.968545629658488e-01)
"ZL" (4.531682889213830e+13 -1.426487293751536e+09)
"ZG" (2.412596246648960e+09 -3.781820475642763e+04)
"YL" (1.899439926988760e-01 -3.504579116959842e-08)
"YG" (1.727530574009965e-13 1.304896269820068e-14)
"freq" 1.584893192461110e-02
"loopGain" (-1.878342801566391e+04 3.330762979082360e-01)
"ZL" (4.561808035375231e+13 -1.622459168891117e+09)
"ZG" (2.428634397998509e+09 -4.331502309163687e+04)
"YL" (1.899439926988744e-01 -3.932202443791157e-08)
"YG" (1.727530580243899e-13 1.464118664939836e-14)
"freq" 1.778279410038919e-02
"loopGain" (-1.878342801483985e+04 3.737177528828357e-01)
"ZL" (4.602603506428083e+13 -1.852814919476520e+09)
"ZG" (2.450353261527580e+09 -4.989233718280715e+04)
"YL" (1.899439926988722e-01 -4.412003707981801e-08)
"YG" (1.727530588091864e-13 1.642765055480989e-14)
"freq" 1.995262314968875e-02
"loopGain" (-1.878342833453937e+04 4.193182298148108e-01)
"ZL" (4.644135214963940e+13 -2.117065062102951e+09)
"ZG" (2.472464086370490e+09 -5.751880995330361e+04)
"YL" (1.899439926990424e-01 -4.950349580812072e-08)
"YG" (4.803828060274357e-21 1.843220577659133e-14)
"freq" 2.238721138568334e-02
"loopGain" (-1.878342801237148e+04 4.704827759533162e-01)
"ZL" (4.710935457080849e+13 -2.443479634796422e+09)
"ZG" (2.508027478735814e+09 -6.727164938736871e+04)
"YL" (1.899439926988662e-01 -5.554383584909608e-08)
"YG" (1.727530610410260e-13 2.068120076719569e-14)
"freq" 2.511886431509574e-02
"loopGain" (-1.878342801061309e+04 5.278903570076515e-01)
"ZL" (4.789216201902908e+13 -2.833803455832596e+09)
"ZG" (2.549702909282107e+09 -7.921608862712745e+04)
"YL" (1.899439926988620e-01 -6.232120884538714e-08)
"YG" (1.727530626069082e-13 2.320467267569710e-14)
"freq" 2.818382931264447e-02
"loopGain" (-1.878342800849560e+04 5.923027222269832e-01)
"ZL" (4.899949519044064e+13 -3.327875197367130e+09)
"ZG" (2.608655576056017e+09 -9.491810900630616e+04)
"YL" (1.899439926988568e-01 -6.992554641883775e-08)
"YG" (1.727530645782088e-13 2.603597949039535e-14)
"freq" 3.162277660168371e-02
"loopGain" (-1.878342800569694e+04 6.645745851486791e-01)
"ZL" (5.035203184356771e+13 -3.942588132398699e+09)
"ZG" (2.680662488593769e+09 -1.150606441915740e+05)
"YL" (1.899439926988502e-01 -7.845775350924593e-08)
"YG" (1.727530670600307e-13 2.921301365439225e-14)
"freq" 3.548133892335745e-02
"loopGain" (-1.878342800227297e+04 7.456649487640629e-01)
"ZL" (5.223179225177228e+13 -4.760697354742894e+09)
"ZG" (2.780737960188570e+09 -1.430712063378758e+05)
"YL" (1.899439926988417e-01 -8.803104732044346e-08)
"YG" (1.727530701843910e-13 3.277753922815488e-14)
"freq" 3.981071705534961e-02
"loopGain" (-1.878342831893653e+04 8.366498617879219e-01)
"ZL" (5.487719510916053e+13 -5.895447426092638e+09)
"ZG" (2.921575025244602e+09 -1.837423711179344e+05)
"YL" (1.899439926990038e-01 -9.877245964515144e-08)
"YG" (1.912438833195460e-20 3.677709397281239e-14)
"freq" 4.466835921509617e-02
"loopGain" (-1.878342831344046e+04 9.387365847640102e-01)
"ZL" (5.848519222431815e+13 -7.514680472498720e+09)
"ZG" (3.113659087142318e+09 -2.444715280407457e+05)
"YL" (1.899439926989905e-01 -1.108245224987109e-07)
"YG" (2.407621512308289e-20 4.126464097792510e-14)
"freq" 5.011872336272707e-02
"loopGain" (-1.878342830658218e+04 1.053279771520925e+00)
"ZL" (6.379261286302788e+13 -1.002976650963260e+10)
"ZG" (3.396217771635908e+09 -3.435417108811364e+05)
"YL" (1.899439926989738e-01 -1.243471594326275e-07)
"YG" (3.031008157696005e-20 4.629957036181984e-14)
"freq" 5.623413251903472e-02
"loopGain" (-1.878342829794990e+04 1.181799340838787e+00)
"ZL" (7.201774627901112e+13 -1.434255324141437e+10)
"ZG" (3.834110874542882e+09 -5.223632948014374e+05)
"YL" (1.899439926989527e-01 -1.395198076233017e-07)
"YG" (3.815804429334961e-20 5.194885306113264e-14)
"freq" 6.309573444801911e-02
"loopGain" (-1.878342828716016e+04 1.326000669615883e+00)
"ZL" (8.613718213981759e+13 -2.302853684089455e+10)
"ZG" (4.585807330874634e+09 -9.022979976307850e+05)
"YL" (1.899439926989261e-01 -1.565437988940257e-07)
"YG" (4.803816733651708e-20 5.828761514500487e-14)
"freq" 7.079457843841354e-02
"loopGain" (-1.878342827350116e+04 1.487797221959050e+00)
"ZL" (1.141897727764284e+14 -4.539670565118864e+10)
"ZG" (6.079282961293360e+09 -1.935360431117950e+06)
"YL" (1.899439926988926e-01 -1.756450312658652e-07)
"YG" (6.047671380599468e-20 6.540004394091698e-14)
"freq" 7.943282347242786e-02
"loopGain" (-1.878342825626986e+04 1.669335938607719e+00)
"ZL" (1.929149052209044e+14 -1.453627355826706e+11)
"ZG" (1.027048490749624e+10 -6.826189774140825e+06)
"YL" (1.899439926988506e-01 -1.970769664865284e-07)
"YG" (7.613549137248359e-20 7.337988228514331e-14)
"freq" 8.912509381337422e-02
"loopGain" (-1.878342823466406e+04 1.873025729007066e+00)
"ZL" (1.501054986358178e+15 -9.875570635133389e+12)
"ZG" (7.991384411646098e+10 -5.177916431935905e+08)
"YL" (1.899439926987976e-01 -2.211239933156492e-07)
"YG" (9.584887767634825e-20 8.233355877563266e-14)
"freq" 9.999999999999962e-02
"loopGain" (-1.878342788650221e+04 2.101569360659240e+00)
"ZL" (-1.990433396739528e+14 -1.948469129079847e+11)
"ZG" (-1.059675120984782e+10 -1.155885393133425e+07)
"YL" (1.899439926985581e-01 -2.481052011887106e-07)
"YG" (1.727531756595763e-13 9.237946787127126e-14)
"freq" 1.122018454301959e-01
"loopGain" (-1.878342817310366e+04 2.357999685242805e+00)
"ZL" (-8.211252787906067e+13 -3.720920349743842e+10)
"ZG" (-4.371540772826578e+09 -2.529700816275000e+06)
"YL" (1.899439926986468e-01 -2.783786143421778e-07)
"YG" (1.519101234640915e-19 1.036517341457180e-13)
"freq" 1.258925411794162e-01
"loopGain" (-1.878342812995654e+04 2.645719160574207e+00)
"ZL" (-4.717103231599748e+13 -1.377781823909602e+10)
"ZG" (-2.511310997706959e+09 -1.087208319663158e+06)
"YL" (1.899439926985409e-01 -3.123459425747091e-07)
"YG" (1.912434333438194e-19 1.162991090356457e-13)
"freq" 1.412537544622748e-01
"loopGain" (-1.878342807558342e+04 2.968545721559870e+00)
"ZL" (-3.073965645335835e+13 -6.561637908872509e+09)
"ZG" (-1.636530601481052e+09 -6.079485108175821e+05)
"YL" (1.899439926984078e-01 -3.504579116952002e-07)
"YG" (2.407617375332375e-19 1.304900280961374e-13)
"freq" 1.584893192461107e-01
"loopGain" (-1.878342800715737e+04 3.330763079670822e+00)
"ZL" (-2.136508703087643e+13 -3.557872505466318e+09)
"ZG" (-1.137443384556887e+09 -3.910956807980487e+05)
"YL" (1.899439926982401e-01 -3.932202443780467e-07)
"YG" (3.031015904751856e-19 1.464124712501848e-13)
"freq" 1.778279410038915e-01
"loopGain" (-1.878342792099118e+04 3.737177637339649e+00)
"ZL" (-1.543898793582077e+13 -2.084370968221247e+09)
"ZG" (-8.219472597193453e+08 -2.744910598376101e+05)
"YL" (1.899439926980291e-01 -4.412003707963000e-07)
"YG" (3.815811204577286e-19 1.642769891915464e-13)
"freq" 1.995262314968871e-01
"loopGain" (-1.878342739020247e+04 4.193182083591102e+00)
"ZL" (3.805320726873133e+13 -1.420948663054872e+10)
"ZG" (2.025892695507000e+09 -3.042705214744993e+05)
"YL" (1.899439926977634e-01 -4.950349580779508e-07)
"YG" (4.803830205218713e-19 1.843221401397479e-13)
"freq" 2.238721138568329e-01
"loopGain" (-1.878342725357331e+04 4.704827671984376e+00)
"ZL" (-4.560249495872761e+14 -2.289391821201292e+12)
"ZG" (-2.427801602038711e+10 -1.279642071628974e+08)
"YL" (1.899439926974289e-01 -5.554383584870797e-07)
"YG" (6.047663906588097e-19 2.068128423385632e-13)
"freq" 2.511886431509568e-01
"loopGain" (-1.878342708180872e+04 5.278903461287026e+00)
"ZL" (-2.625865540376413e+13 -8.517753435167095e+09)
"ZG" (-1.397969125631518e+09 -8.463255830858570e+05)
"YL" (1.899439926970078e-01 -6.232120884484365e-07)
"YG" (7.613561936721650e-19 2.320479525629827e-13)
"freq" 2.818382931264440e-01
"loopGain" (-1.878342644297707e+04 5.923026819702682e+00)
"ZL" (3.281135842308370e+13 -1.492737957309923e+10)
"ZG" (1.746825041166065e+09 -2.439242248591523e+05)
"YL" (1.899439926964777e-01 -6.992554641804280e-07)
"YG" (9.584876024838745e-19 2.603612546201168e-13)
"freq" 3.162277660168364e-01
"loopGain" (-1.878342617055362e+04 6.645745376079619e+00)
"ZL" (-3.791304024280652e+13 -2.234448354022692e+10)
"ZG" (-2.018429835178751e+09 -1.903665424748202e+06)
"YL" (1.899439926958102e-01 -7.845775350800476e-07)
"YG" (1.206668044431646e-18 2.921310148579787e-13)
"freq" 3.548133892335737e-01
"loopGain" (-1.878342561633883e+04 7.456648753468928e+00)
"ZL" (-2.434659402279729e+13 -1.034096830354484e+10)
"ZG" (-1.296173912904010e+09 -1.065050277277497e+06)
"YL" (1.899439926949700e-01 -8.803104731853108e-07)
"YG" (1.519098807666164e-18 3.277750396609213e-13)
"freq" 3.981071705534953e-01
"loopGain" (-1.878342476232907e+04 8.366497091220706e+00)
"ZL" (-5.716276694900413e+13 -6.398142953708786e+10)
"ZG" (-3.043253721449300e+09 -4.761683508827477e+06)
"YL" (1.899439926939121e-01 -9.877245964245055e-07)
"YG" (1.912436263023522e-18 3.677704454678106e-13)
"freq" 4.466835921509609e-01
"loopGain" (-1.878342379629451e+04 9.387363649387726e+00)
"ZL" (-5.813121459272899e+13 -7.423981442773666e+10)
"ZG" (-3.094811883170756e+09 -5.498974410296024e+06)
"YL" (1.899439926925805e-01 -1.108245224947680e-06)
"YG" (2.407609977306454e-18 4.126444327635059e-13)
"freq" 5.011872336272697e-01
"loopGain" (-1.878342268969176e+04 1.053279469500308e+01)
"ZL" (-2.159884220389564e+13 -1.149723546426184e+10)
"ZG" (-1.149887830373307e+09 -1.256841166396621e+06)
"YL" (1.899439926909040e-01 -1.243471594274362e-06)
"YG" (3.031014628822984e-18 4.629966920994377e-13)
"freq" 5.623413251903461e-01
"loopGain" (-1.878342066250438e+04 1.181798843457672e+01)
"ZL" (7.387041944825605e+14 -1.510113914316114e+13)
"ZG" (3.932794792502301e+10 -7.792190706163148e+08)
"YL" (1.899439926886207e-01 -1.395198076158670e-06)
"YG" (1.727568708005840e-13 5.194889091602720e-13)
"freq" 6.309573444801898e-01
"loopGain" (-1.878341905416362e+04 1.326000020324769e+01)
"ZL" (4.116685623786800e+14 -5.259586753333919e+12)
"ZG" (2.191678035267767e+10 -2.645415062835464e+08)
"YL" (1.899439926861364e-01 -1.565437988835362e-06)
"YG" (4.803822164523589e-18 5.828768104114078e-13)
"freq" 7.079457843841340e-01
"loopGain" (-1.878341663285957e+04 1.487796301414166e+01)
"ZL" (5.627039016771659e+14 -1.102682557982105e+13)
"ZG" (2.995793006404419e+10 -5.633239789319276e+08)
"YL" (1.899439926827914e-01 -1.756450312506590e-06)
"YG" (6.047643957499606e-18 6.539974738510023e-13)
"freq" 7.943282347242770e-01
"loopGain" (-1.878341385808668e+04 1.669334684348705e+01)
"ZL" (-1.376516136813312e+13 -7.400514414537499e+09)
"ZG" (-7.328350544364606e+08 -1.045229864271566e+06)
"YL" (1.899439926785803e-01 -1.970769664654351e-06)
"YG" (7.613545717653086e-18 7.337984932728208e-13)
"freq" 8.912509381337405e-01
"loopGain" (-1.878340958219667e+04 1.873023853320614e+01)
"ZL" (2.256614078118643e+13 -2.232141590592277e+10)
"ZG" (1.201386803738133e+09 9.530132383550294e+03)
"YL" (1.899439926732789e-01 -2.211239932860328e-06)
"YG" (9.584903109898298e-18 8.233369056469255e-13)
"freq" 9.999999999999942e-01
"loopGain" (-1.878340495729152e+04 2.101566833873250e+01)
"ZL" (-8.001403891899745e+13 -3.148929337362427e+11)
"ZG" (-4.259802035370227e+09 -2.153007996262220e+07)
"YL" (1.899439926666046e-01 -2.481052011467180e-06)
"YG" (1.206662265701451e-17 9.237949580574665e-13)
"freq" 1.122018454301957e+00
"loopGain" (-1.878339846137387e+04 2.357995904638338e+01)
"ZL" (9.172745042609295e+13 -4.642586593879699e+11)
"ZG" (4.883455305373343e+09 -1.858643290230020e+07)
"YL" (1.899439926580295e-01 -2.783786142826681e-06)
"YG" (1.727682459830613e-13 1.036515797899581e-12)
"freq" 1.258925411794160e+00
"loopGain" (-1.878339129687999e+04 2.645713981354485e+01)
"ZL" (-2.681561571343496e+13 -4.451707601610155e+10)
"ZG" (-1.427617600412990e+09 -4.380714264692000e+06)
"YL" (1.899439926476244e-01 -3.123459424911312e-06)
"YG" (1.912438667601566e-17 1.162993726047130e-12)
"freq" 1.412537544622746e+00
"loopGain" (-1.878338184878133e+04 2.968538449080347e+01)
"ZL" (-1.094459123150332e+13 -8.319333922300482e+09)
"ZG" (-5.826720147886555e+08 -1.363692881330589e+06)
"YL" (1.899439926343076e-01 -3.504579115762439e-06)
"YG" (2.407607647354652e-17 1.304895008516161e-12)
"freq" 1.584893192461104e+00
"loopGain" (-1.878336951492706e+04 3.330752702634886e+01)
"ZL" (-2.428906110403457e+13 -4.598202910217670e+10)
"ZG" (-1.293106829299864e+09 -4.740826859834837e+06)
"YL" (1.899439926175429e-01 -3.932202442100364e-06)
"YG" (3.031000896661143e-17 1.464117462873150e-12)
"freq" 1.778279410038912e+00
"loopGain" (-1.878335414230072e+04 3.737162925371824e+01)
"ZL" (-5.099244508772945e+13 -2.274128860752160e+11)
"ZG" (-2.714732982082554e+09 -1.750798040862098e+07)
"YL" (1.899439925964372e-01 -4.412003705600033e-06)
"YG" (3.815811202520253e-17 1.642769891036825e-12)
"freq" 1.995262314968867e+00
"loopGain" (-1.878333452858965e+04 4.193161310137831e+01)
"ZL" (-1.153635285964618e+14 -1.306081082383706e+12)
"ZG" (-6.141616458508220e+09 -8.324336227612764e+07)
"YL" (1.899439925696942e-01 -4.950349577435254e-06)
"YG" (1.728010931263854e-13 1.843214920839515e-12)
"freq" 2.238721138568325e+00
"loopGain" (-1.878331063694383e+04 4.704798474423854e+01)
"ZL" (-6.558943839930987e+13 -4.738083348453231e+11)
"ZG" (-3.491814711809717e+09 -3.397046334092776e+07)
"YL" (1.899439925364166e-01 -5.554383580156062e-06)
"YG" (6.047663901459081e-17 2.068128421632515e-12)
"freq" 2.511886431509564e+00
"loopGain" (-1.878328014369515e+04 5.278862147624295e+01)
"ZL" (-4.898104712831045e+13 -2.963559981819230e+11)
"ZG" (-2.607629087039129e+09 -2.310554383113836e+07)
"YL" (1.899439924943054e-01 -6.232120877823311e-06)
"YG" (7.613557604185540e-17 2.320478205152272e-12)
"freq" 2.818382931264435e+00
"loopGain" (-1.878324160996940e+04 5.922968557314378e+01)
"ZL" (8.228941681470975e+13 -9.386421612119899e+11)
"ZG" (4.381115872627184e+09 -3.615836100757693e+07)
"YL" (1.899439924412905e-01 -6.992554632395841e-06)
"YG" (9.584871159894257e-17 2.603611224702040e-12)
"freq" 3.162277660168358e+00
"loopGain" (-1.878319346105752e+04 6.645663062973134e+01)
"ZL" (-2.257295431561228e+13 -7.923500821931351e+10)
"ZG" (-1.201733436831538e+09 -8.469893151924439e+06)
"YL" (1.899439923745486e-01 -7.845775337499390e-06)
"YG" (1.206662598286534e-16 2.921296963626725e-12)
"freq" 3.548133892335731e+00
"loopGain" (-1.878313234587601e+04 7.456532245696323e+01)
"ZL" (5.222745195915988e+13 -4.761410936221370e+11)
"ZG" (2.780607501710008e+09 -1.431183685350532e+07)
"YL" (1.899439922905255e-01 -8.803104713091348e-06)
"YG" (1.519102469451706e-16 3.277758297637219e-12)
"freq" 3.981071705534945e+00
"loopGain" (-1.878305580457166e+04 8.366332737083806e+01)
"ZL" (-1.248019265794461e+14 -3.051328154188571e+12)
"ZG" (-6.643533525958844e+09 -1.920402578988769e+08)
"YL" (1.899439921847468e-01 -9.877245937736167e-06)
"YG" (1.912438314004920e-16 3.677708398823255e-12)
"freq" 4.466835921509600e+00
"loopGain" (-1.878295942684385e+04 9.387131612077442e+01)
"ZL" (-2.693504130754797e+13 -1.593689839334810e+11)
"ZG" (-1.433936568055260e+09 -1.565054249121578e+07)
"YL" (1.899439920515792e-01 -1.108245221203301e-05)
"YG" (2.407613814166484e-16 4.126450903715655e-12)
"freq" 5.011872336272687e+00
"loopGain" (-1.878283778470545e+04 1.053246659552097e+02)
"ZL" (1.002223408467763e+14 -2.477581820724426e+12)
"ZG" (5.336418381595716e+09 -1.019851865557063e+08)
"YL" (1.899439918839311e-01 -1.243471588983563e-05)
"YG" (3.031009438937365e-16 4.629958993316828e-12)
"freq" 5.623413251903450e+00
"loopGain" (-1.878268491222764e+04 1.181752573382376e+02)
"ZL" (-5.730268327570825e+14 -9.322629856332362e+13)
"ZG" (-3.047581700429178e+10 -5.155146448270303e+09)
"YL" (1.899439916728748e-01 -1.395198068687078e-05)
"YG" (3.815812637649930e-16 5.194896481060744e-12)
"freq" 6.309573444801886e+00
"loopGain" (-1.878249242283737e+04 1.325934608627041e+02)
"ZL" (-1.609709334775225e+14 -8.060878811313446e+12)
"ZG" (-8.566808428594027e+09 -4.896415538736020e+08)
"YL" (1.899439914071706e-01 -1.565437978281731e-05)
"YG" (4.803832994538183e-16 5.828781244878803e-12)
"freq" 7.079457843841326e+00
"loopGain" (-1.878224978883397e+04 1.487703858519211e+02)
"ZL" (-6.742887599381759e+13 -1.583541942444332e+12)
"ZG" (-3.589138923088502e+09 -1.127370743804118e+08)
"YL" (1.899439910724962e-01 -1.756450297596786e-05)
"YG" (1.733578188798393e-13 6.539969252264972e-12)
"freq" 7.943282347242755e+00
"loopGain" (-1.878194489601922e+04 1.669204104565482e+02)
"ZL" (-1.498570880898074e+13 -8.773892231078290e+10)
"ZG" (-7.977739081093886e+08 -1.176091169935102e+07)
"YL" (1.899439906513834e-01 -1.970769643593985e-05)
"YG" (1.735144090623221e-13 7.337980110392681e-12)
"freq" 8.912509381337388e+00
"loopGain" (-1.878156099715378e+04 1.872839545004094e+02)
"ZL" (-3.942650739167566e+13 -6.816009588318917e+11)
"ZG" (-2.098643032886666e+09 -5.721627825815324e+07)
"YL" (1.899439901214066e-01 -2.211239903110859e-05)
"YG" (9.584884568687561e-16 8.233353129840737e-12)
"freq" 9.999999999999924e+00
"loopGain" (-1.878107749421244e+04 2.101306433773868e+02)
"ZL" (-4.679374628455514e+13 -1.077459695023757e+12)
"ZG" (-2.490583246280663e+09 -8.523285204622404e+07)
"YL" (1.899439894539879e-01 -2.481051969448757e-05)
"YG" (1.206664311154944e-15 9.237965240342998e-12)
"freq" 1.122018454301955e+01
"loopGain" (-1.878046935139136e+04 2.357628316084104e+02)
"ZL" (-1.451433050073009e+13 -1.162388962690622e+11)
"ZG" (-7.726423021830336e+08 -1.588801364148768e+07)
"YL" (1.899439886139303e-01 -2.783786083476911e-05)
"YG" (-1.712339486271825e-13 1.036520839504739e-11)
"freq" 1.258925411794157e+01
"loopGain" (-1.877970248752861e+04 2.645194367257063e+02)
"ZL" (-1.770149965231632e+13 -1.940046219633726e+11)
"ZG" (-9.422543538424187e+08 -2.360148432796977e+07)
"YL" (1.899439875557973e-01 -3.123459341065431e-05)
"YG" (1.746654854643120e-13 1.162988745301289e-11)
"freq" 1.412537544622743e+01
"loopGain" (-1.877873794179470e+04 2.967804448190387e+02)
"ZL" (1.987859106031893e+13 -2.745798234359701e+11)
"ZG" (1.058535731062352e+09 2.105958635507796e+06)
"YL" (1.899439862242947e-01 -3.504578997338200e-05)
"YG" (2.407615347722894e-15 1.304899182083809e-11)
"freq" 1.584893192461101e+01
"loopGain" (-1.877752424759164e+04 3.329716206890816e+02)
"ZL" (-2.132440682311541e+13 -3.545285093447776e+11)
"ZG" (-1.134943000439424e+09 -3.900415370838100e+07)
"YL" (1.899439845478147e-01 -3.932202274818359e-05)
"YG" (3.031006224740441e-15 1.464120036672782e-11)
"freq" 1.778279410038909e+01
"loopGain" (-1.877599607766623e+04 3.735698990601342e+02)
"ZL" (-1.999770242071517e+13 -3.497442922371339e+11)
"ZG" (-1.064275589258013e+09 -3.980045183494948e+07)
"YL" (1.899439824372515e-01 -4.412003469307893e-05)
"YG" (3.815819570190844e-15 1.642773493576237e-11)
"freq" 1.995262314968863e+01
"loopGain" (-1.877407263032784e+04 4.191093838593568e+02)
"ZL" (5.322715409693105e+13 -2.787712409500150e+12)
"ZG" (2.837042312647418e+09 -8.515884149296919e+07)
"YL" (1.899439797803826e-01 -4.950349243667531e-05)
"YG" (-1.679492185181709e-13 1.843223801358302e-11)
"freq" 2.238721138568321e+01
"loopGain" (-1.877165142053303e+04 4.701878123565133e+02)
"ZL" (-9.195050533314006e+13 -9.405757717534348e+12)
"ZG" (-4.882757759494332e+09 -6.233539193381321e+08)
"YL" (1.899439764351929e-01 -5.554383108678653e-05)
"YG" (6.047647971611347e-15 2.068122974316510e-11)
"freq" 2.511886431509559e+01
"loopGain" (-1.876860479862601e+04 5.274737905663528e+02)
"ZL" (-5.502056279316495e+13 -3.757255075952569e+12)
"ZG" (-2.923586456116813e+09 -2.823461838055397e+08)
"YL" (1.899439722242387e-01 -6.232120211849512e-05)
"YG" (-1.651395037975502e-13 2.320476244790264e-11)
"freq" 2.818382931264430e+01
"loopGain" (-1.876476959923645e+04 5.917143699748896e+02)
"ZL" (-3.191442327689781e+14 -1.925946181370542e+14)
"ZG" (-1.666743591171526e+10 -1.078916204011339e+10)
"YL" (1.899439669223990e-01 -6.992553691683160e-05)
"YG" (1.823379169468409e-13 2.603608732825663e-11)
"freq" 3.162277660168353e+01
"loopGain" (-1.875994496723631e+04 6.637437618822941e+02)
"ZL" (2.641160382204873e+13 -1.086643427874457e+12)
"ZG" (1.408158628222111e+09 -8.105729700437604e+06)
"YL" (1.899439602485591e-01 -7.845774008718670e-05)
"YG" (-1.606863971851906e-13 2.921304659621602e-11)
"freq" 3.548133892335724e+01
"loopGain" (-1.875387410113880e+04 7.444917538248337e+02)
"ZL" (5.836900884740839e+13 -6.010543721882461e+12)
"ZG" (3.120175609207676e+09 -1.966413419211634e+08)
"YL" (1.899439518462580e-01 -8.803102836138378e-05)
"YG" (-1.575619817221898e-13 3.277768769284806e-11)
"freq" 3.981071705534938e+01
"loopGain" (-1.874623699213417e+04 8.349933259071191e+02)
"ZL" (-3.390915439082649e+13 -2.260997045742976e+12)
"ZG" (-1.799908520290258e+09 -2.007755054622979e+08)
"YL" (1.899439412683888e-01 -9.877243286454547e-05)
"YG" (-1.536286740744628e-13 3.677707961065928e-11)
"freq" 4.466835921509592e+01
"loopGain" (-1.873663111158270e+04 9.363978558195887e+02)
"ZL" (-2.393540836767751e+13 -1.261687770637615e+12)
"ZG" (-1.270926544887189e+09 -1.308497218364980e+08)
"YL" (1.899439279516420e-01 -1.108244846700142e-04)
"YG" (-1.486769030120352e-13 4.126453264189810e-11)
"freq" 5.011872336272678e+01
"loopGain" (-1.872455165766369e+04 1.049978309602743e+03)
"ZL" (-2.123400243861985e+13 -1.114305864217848e+12)
"ZG" (-1.127138337451318e+09 -1.227094512322230e+08)
"YL" (1.899439111866811e-01 -1.243471059983310e-04)
"YG" (3.031008149479065e-14 4.629957026290570e-11)
"freq" 5.623413251903440e+01
"loopGain" (-1.870936704380787e+04 1.177139677553765e+03)
"ZL" (2.793339433817667e+13 -2.170815187661985e+12)
"ZG" (1.494400436031761e+09 -2.201247260803730e+07)
"YL" (1.899438900812402e-01 -1.395197321455923e-04)
"YG" (-1.345948402331325e-13 5.194908500605983e-11)
"freq" 6.309573444801875e+01
"loopGain" (-1.869028590171196e+04 1.319425449762513e+03)
"ZL" (-5.974733835419941e+13 -1.148494717636072e+13)
"ZG" (-3.137692976055715e+09 -8.359717987241735e+08)
"YL" (1.899438635108536e-01 -1.565436922788943e-04)
"YG" (-1.247146573215065e-13 5.828789448900956e-11)
"freq" 7.079457843841314e+01
"loopGain" (-1.866631923881449e+04 1.478521372933207e+03)
"ZL" (-3.645724384850276e+13 -4.705856905979384e+12)
"ZG" (-1.921083308293501e+09 -4.042566104674402e+08)
"YL" (1.899438300607291e-01 -1.756448806673655e-04)
"YG" (-1.122765778485204e-13 6.539978787657172e-11)
"freq" 7.943282347242742e+01
"loopGain" (-1.863623437044412e+04 1.656254578613053e+03)
"ZL" (6.789301837453737e+13 -1.948799819616347e+13)
"ZG" (3.706715489150260e+09 -7.163040886778800e+08)