HEADER
"PSFversion" "1.00"
"simulator" "spectre"
"version" "25.1.0.235.isr5"
"date" "7:59:06 AM, Sun Jul 19, 2026"
"design" "// tb_ota2s_sugg.scs (SKY130) -- the compensation network CircuitInsight's"
"analysis type" "margin.stb"
"analysis name" "stb"
"analysis description" "Stability Analysis `stb': freq = (1 mHz -> 10 GHz)"
"xVecSorted" "ascending"
"tolerance.relative" 1.000000000000000e-03
"operating point producer" "stb"
"probe" "IPRB0"
TYPE
"dB" FLOAT DOUBLE PROP(
"key" "gain"
"units" "dB"
)
"Deg" FLOAT DOUBLE PROP(
"key" "gain"
"units" "Deg"
)
"Hz" FLOAT DOUBLE PROP(
"key" "gain"
"units" "Hz"
)
"stbstate" STRING *
VALUE
"gainMargin" "dB" 1.575185279588399e+01
"gainMarginFreq" "Hz" 6.617900698182381e+07
"phaseMargin" "Deg" 6.675138661240747e+01
"phaseMarginFreq" "Hz" 1.908595208364373e+07
"stb_state" "stbstate" "The circuit is stable. Gain and phase margin are both found."
END
