HEADER
"PSFversion" "1.00"
"simulator" "spectre"
"version" "25.1.0.235.isr5"
"date" "7:37:27 PM, Sun Jul 19, 2026"
"design" "// r2r_bias_pos_loop.scs (SKY130) -- floating-pair isolation bench: two"
"analysis type" "margin.stb"
"analysis name" "stb"
"analysis description" "Stability Analysis `stb': freq = (1 mHz -> 10 GHz)"
"xVecSorted" "ascending"
"tolerance.relative" 1.000000000000000e-03
"operating point producer" "stb"
"probe" "VPRB"
TYPE
"dB" FLOAT DOUBLE PROP(
"key" "gain"
"units" "dB"
)
"Deg" FLOAT DOUBLE PROP(
"key" "gain"
"units" "Deg"
)
"Hz" FLOAT DOUBLE PROP(
"key" "gain"
"units" "Hz"
)
"stbstate" STRING *
VALUE
"gainMargin" "dB" nan
"gainMarginFreq" "Hz" nan
"phaseMargin" "Deg" 9.705436395767549e+00
"phaseMarginFreq" "Hz" 1.133874201493001e+08
"stb_state" "stbstate" "The circuit is stable. No gain margin. Phase does not reach 0."
END
