HEADER
"PSFversion" "1.00"
"simulator" "spectre"
"version" "25.1.0.235.isr5"
"date" "7:37:27 PM, Sun Jul 19, 2026"
"design" "// r2r_bias_pos_loop.scs (SKY130) -- floating-pair isolation bench: two"
"analysis type" "stb"
"analysis name" "stb"
"analysis description" "Stability Analysis `stb': freq = (1 mHz -> 10 GHz)"
"xVecSorted" "ascending"
"tolerance.relative" 1.000000000000000e-03
"operating point producer" "stb"
"probe" "VPRB"
"marginFilename" "stb.margin.stb"
TYPE
"sweep" FLOAT DOUBLE PROP(
"key" "sweep"
)
"LOOPGAIN" COMPLEX DOUBLE PROP(
"key" "gain"
)
"IMPEDANCE" COMPLEX DOUBLE PROP(
"key" "advprobe"
)
"ADMITTANCE" COMPLEX DOUBLE PROP(
"key" "advprobe"
)
SWEEP
"freq" "sweep" PROP(
"sweep_direction" 0
"units" "Hz"
"plot" 0
"grid" 3
)
TRACE
"loopGain" "LOOPGAIN"
"ZL" "IMPEDANCE"
"ZG" "IMPEDANCE"
"YL" "ADMITTANCE"
"YG" "ADMITTANCE"
VALUE
"freq" 1.000000000000000e-03
"loopGain" (1.004097672899299e+00 -1.502170171146151e-12)
"ZL" (3.328103980982965e+03 -1.811461947328134e-09)
"ZG" (-5.146474336994708e+03 7.194522790844379e-07)
"YL" (3.004726062913157e-04 1.630610438337626e-16)
"YG" (-3.017131671270136e-04 2.907861913388652e-16)
"freq" 1.122018454301963e-03
"loopGain" (1.004097672899299e+00 -1.685462653741722e-12)
"ZL" (3.328103980982965e+03 -2.032493710293214e-09)
"ZG" (-5.146474336994708e+03 8.072387340854059e-07)
"YL" (3.004726062913157e-04 1.829575020552540e-16)
"YG" (-3.017131671270136e-04 3.262674712423433e-16)
"freq" 1.258925411794167e-03
"loopGain" (1.004097672899299e+00 -1.891120201381183e-12)
"ZL" (3.328103980982965e+03 -2.280495487500691e-09)
"ZG" (-5.146474336994708e+03 9.057367567273565e-07)
"YL" (3.004726062913157e-04 2.052816937952510e-16)
"YG" (-3.017131671270136e-04 3.660781236361080e-16)
"freq" 1.412537544622754e-03
"loopGain" (1.004097672899299e+00 -2.121871765233453e-12)
"ZL" (3.328103980982965e+03 -2.558757996364786e-09)
"ZG" (-5.146474336994708e+03 1.016253355748156e-06)
"YL" (3.004726062913157e-04 2.303298466463970e-16)
"YG" (-3.017131671270136e-04 4.107464125581773e-16)
"freq" 1.584893192461113e-03
"loopGain" (1.004097672899299e+00 -2.380779278314509e-12)
"ZL" (3.328103980982965e+03 -2.870973706854916e-09)
"ZG" (-5.146474336994708e+03 1.140255019418664e-06)
"YL" (3.004726062913157e-04 2.584343405217235e-16)
"YG" (-3.017131671270136e-04 4.608650529206684e-16)
"freq" 1.778279410038922e-03
"loopGain" (1.004097672899299e+00 -2.671278285616653e-12)
"ZL" (3.328103980982965e+03 -3.221285512679034e-09)
"ZG" (-5.146474336994708e+03 1.279387174447331e-06)
"YL" (3.004726062913157e-04 2.899680972348761e-16)
"YG" (-3.017131671270136e-04 5.170990963757058e-16)
"freq" 1.995262314968878e-03
"loopGain" (1.004097672899299e+00 -2.997223533099936e-12)
"ZL" (3.328103980982965e+03 -3.614341833268707e-09)
"ZG" (-5.146474336994708e+03 1.435496019991265e-06)
"YL" (3.004726062913157e-04 3.253495601776286e-16)
"YG" (-3.017131671270136e-04 5.801947249151338e-16)
"freq" 2.238721138568338e-03
"loopGain" (1.004097672899299e+00 -3.362940115692657e-12)
"ZL" (3.328103980982965e+03 -4.055358155309966e-09)
"ZG" (-5.146474336994708e+03 1.610653025380748e-06)
"YL" (3.004726062913157e-04 3.650482030199396e-16)
"YG" (-3.017131671270136e-04 6.509891960418042e-16)
"freq" 2.511886431509578e-03
"loopGain" (1.004097672899299e+00 -3.773280870811878e-12)
"ZL" (3.328103980982965e+03 -4.550186693537327e-09)
"ZG" (-5.146474336994708e+03 1.807182417961417e-06)
"YL" (3.004726062913157e-04 4.095908254489175e-16)
"YG" (-3.017131671270136e-04 7.304218865593331e-16)
"freq" 2.818382931264451e-03
"loopGain" (1.004097672899299e+00 -4.233690769784823e-12)
"ZL" (3.328103980982965e+03 -5.105393542313791e-09)
"ZG" (-5.146474336994708e+03 2.027692023399878e-06)
"YL" (3.004726062913157e-04 4.595684636610108e-16)
"YG" (-3.017131671270136e-04 8.195468373510362e-16)
"freq" 3.162277660168376e-03
"loopGain" (1.004097672899299e+00 -4.750279173631070e-12)
"ZL" (3.328103980982965e+03 -5.728345774972334e-09)
"ZG" (-5.146474336994708e+03 2.275107869901816e-06)
"YL" (3.004726062913157e-04 5.156442995047904e-16)
"YG" (-3.017131671270136e-04 9.195466734107686e-16)
"freq" 3.548133892335751e-03
"loopGain" (1.004097672899299e+00 -5.329900896527861e-12)
"ZL" (3.328103980982965e+03 -6.427309539648939e-09)
"ZG" (-5.146474336994708e+03 2.552713015352627e-06)
"YL" (3.004726062913157e-04 5.785624204531147e-16)
"YG" (-3.017131671270136e-04 1.031748336605760e-15)
"freq" 3.981071705534968e-03
"loopGain" (1.004097672899299e+00 -5.980247164828400e-12)
"ZL" (3.328103980982965e+03 -7.211559899006291e-09)
"ZG" (-5.146474336994708e+03 2.864191111737727e-06)
"YL" (3.004726062913157e-04 6.491577008550861e-16)
"YG" (-3.017131671270136e-04 1.157640685725934e-15)
"freq" 4.466835921509626e-03
"loopGain" (1.004097672899299e+00 -6.709947680713689e-12)
"ZL" (3.328103980982965e+03 -8.091503331689176e-09)
"ZG" (-5.146474336994708e+03 3.213675284080386e-06)
"YL" (3.004726062913157e-04 7.283669307520772e-16)
"YG" (-3.017131671270136e-04 1.298894202194883e-15)
"freq" 5.011872336272717e-03
"loopGain" (1.004097672899299e+00 -7.528685124420508e-12)
"ZL" (3.328103980982965e+03 -9.078816179214176e-09)
"ZG" (-5.146474336994708e+03 3.605802975054734e-06)
"YL" (3.004726062913157e-04 8.172411344305040e-16)
"YG" (-3.017131671270136e-04 1.457383268425054e-15)
"freq" 5.623413251903483e-03
"loopGain" (1.004097672899299e+00 -8.447323646839314e-12)
"ZL" (3.328103980982965e+03 -1.018659916957069e-08)
"ZG" (-5.146474336994708e+03 4.045777480392514e-06)
"YL" (3.004726062913157e-04 9.169596351469292e-16)
"YG" (-3.017131671270136e-04 1.635210921462685e-15)
"freq" 6.309573444801923e-03
"loopGain" (1.004097672899299e+00 -9.478053021939860e-12)
"ZL" (3.328103980982965e+03 -1.142955206077549e-08)
"ZG" (-5.146474336994708e+03 4.539436994699443e-06)
"YL" (3.004726062913157e-04 1.028845630208910e-15)
"YG" (-3.017131671270136e-04 1.834736832833076e-15)
"freq" 7.079457843841368e-03
"loopGain" (1.004097672899299e+00 -1.063455040074708e-11)
"ZL" (3.328103980982965e+03 -1.282416878122547e-08)
"ZG" (-5.146474336994708e+03 5.093332080881413e-06)
"YL" (3.004726062913157e-04 1.154383803806058e-15)
"YG" (-3.017131671270136e-04 2.058608565142542e-15)
"freq" 7.943282347242802e-03
"loopGain" (1.004097672899299e+00 -1.193216180091273e-11)
"ZL" (3.328103980982965e+03 -1.438895404544822e-08)
"ZG" (-5.146474336994708e+03 5.714812588655347e-06)
"YL" (3.004726062913157e-04 1.295239901465618e-15)
"YG" (-3.017131671270136e-04 2.309796830026017e-15)
"freq" 8.912509381337440e-03
"loopGain" (1.004097672899299e+00 -1.338810574059416e-11)
"ZL" (3.328103980982965e+03 -1.614467195815979e-08)
"ZG" (-5.146474336994708e+03 6.412125187319322e-06)
"YL" (3.004726062913157e-04 1.453283074861732e-15)
"YG" (-3.017131671270136e-04 2.591634666308402e-15)
"freq" 9.999999999999981e-03
"loopGain" (1.004097672899299e+00 -1.502170171344858e-11)
"ZL" (3.328103980982965e+03 -1.811461939320640e-08)
"ZG" (-5.146474336994708e+03 7.194522790720558e-06)
"YL" (3.004726062913157e-04 1.630610464164137e-15)
"YG" (-3.017131671270136e-04 2.907861887562143e-15)
"freq" 1.122018454301961e-02
"loopGain" (1.004097672899299e+00 -1.685462653706981e-11)
"ZL" (3.328103980982965e+03 -2.032493742334310e-08)
"ZG" (-5.146474336994708e+03 8.072387341349574e-06)
"YL" (3.004726062913157e-04 1.829575037771156e-15)
"YG" (-3.017131671270136e-04 3.262674695204846e-15)
"freq" 1.258925411794165e-02
"loopGain" (1.004097672899299e+00 -1.891120201039151e-11)
"ZL" (3.328103980982965e+03 -2.280495527550152e-08)
"ZG" (-5.146474336994708e+03 9.057367567892694e-06)
"YL" (3.004726062913157e-04 2.052816912130957e-15)
"YG" (-3.017131671270136e-04 3.660781262182506e-15)
"freq" 1.412537544622751e-02
"loopGain" (1.004097672899299e+00 -2.121871765289941e-11)
"ZL" (3.328103980982965e+03 -2.558758044424314e-08)
"ZG" (-5.146474336994708e+03 1.016253355822463e-05)
"YL" (3.004726062913157e-04 2.303298509507108e-15)
"YG" (-3.017131671270136e-04 4.107464082538568e-15)
"freq" 1.584893192461110e-02
"loopGain" (1.004097672899299e+00 -2.380779278456576e-11)
"ZL" (3.328103980982965e+03 -2.870973650793303e-08)
"ZG" (-5.146474336994708e+03 1.140255019331954e-05)
"YL" (3.004726062913157e-04 2.584343388004778e-15)
"YG" (-3.017131671270136e-04 4.608650546419015e-15)
"freq" 1.778279410038919e-02
"loopGain" (1.004097672899299e+00 -2.671278286048928e-11)
"ZL" (3.328103980982965e+03 -3.221285464627311e-08)
"ZG" (-5.146474336994708e+03 1.279387174373052e-05)
"YL" (3.004726062913157e-04 2.899681006784360e-15)
"YG" (-3.017131671270136e-04 5.170990929321645e-15)
"freq" 1.995262314968875e-02
"loopGain" (1.004097672899299e+00 -2.997223533403918e-11)
"ZL" (3.328103980982965e+03 -3.614341753178009e-08)
"ZG" (-5.146474336994708e+03 1.435496019867404e-05)
"YL" (3.004726062913157e-04 3.253495593171486e-15)
"YG" (-3.017131671270136e-04 5.801947257756066e-15)
"freq" 2.238721138568334e-02
"loopGain" (1.004097672899299e+00 -3.362940115480024e-11)
"ZL" (3.328103980982965e+03 -4.055358251427179e-08)
"ZG" (-5.146474336994708e+03 1.610653025529378e-05)
"YL" (3.004726062913157e-04 3.650482064635389e-15)
"YG" (-3.017131671270136e-04 6.509891925982041e-15)
"freq" 2.511886431509574e-02
"loopGain" (1.004097672899299e+00 -3.773280870594511e-11)
"ZL" (3.328103980982965e+03 -4.550186693544091e-08)
"ZG" (-5.146474336994708e+03 1.807182417961417e-05)
"YL" (3.004726062913157e-04 4.095908220061172e-15)
"YG" (-3.017131671270136e-04 7.304218900021263e-15)
"freq" 2.818382931264447e-02
"loopGain" (1.004097672899299e+00 -4.233690770175594e-11)
"ZL" (3.328103980982965e+03 -5.105393382132953e-08)
"ZG" (-5.146474336994708e+03 2.027692023152272e-05)
"YL" (3.004726062913157e-04 4.595684584966872e-15)
"YG" (-3.017131671270136e-04 8.195468425154246e-15)
"freq" 3.162277660168371e-02
"loopGain" (1.004097672899299e+00 -4.750279173413919e-11)
"ZL" (3.328103980982965e+03 -5.728345774979482e-08)
"ZG" (-5.146474336994708e+03 2.275107869901884e-05)
"YL" (3.004726062913157e-04 5.156442960620558e-15)
"YG" (-3.017131671270136e-04 9.195466768535418e-15)
"freq" 3.548133892335745e-02
"loopGain" (1.004097672899299e+00 -5.329900896128315e-11)
"ZL" (3.328103980982965e+03 -6.427309507619960e-08)
"ZG" (-5.146474336994708e+03 2.552713015303095e-05)
"YL" (3.004726062913157e-04 5.785624118454616e-15)
"YG" (-3.017131671270136e-04 1.031748345213411e-14)
"freq" 3.981071705534961e-02
"loopGain" (1.004097672899299e+00 -5.980247165918947e-11)
"ZL" (3.328103980982964e+03 -7.211559995128179e-08)
"ZG" (-5.146474336994786e+03 2.864191111886378e-05)
"YL" (3.004726062913157e-04 6.491577249586733e-15)
"YG" (-3.017131671270137e-04 1.157640661622348e-14)
"freq" 4.466835921509617e-02
"loopGain" (1.004097672899299e+00 -6.709947680965285e-11)
"ZL" (3.328103980982964e+03 -8.091503299665298e-08)
"ZG" (-5.146474336994708e+03 3.213675284030770e-05)
"YL" (3.004726062913157e-04 7.283669324748378e-15)
"YG" (-3.017131671270136e-04 1.298894200472057e-14)
"freq" 5.011872336272707e-02
"loopGain" (1.004097672899299e+00 -7.528685125423588e-11)
"ZL" (3.328103980982964e+03 -9.078815954968272e-08)
"ZG" (-5.146474336994707e+03 3.605802974707948e-05)
"YL" (3.004726062913157e-04 8.172411344317317e-15)
"YG" (-3.017131671270136e-04 1.457383268423813e-14)
"freq" 5.623413251903472e-02
"loopGain" (1.004097672899299e+00 -8.447323645979755e-11)
"ZL" (3.328103980982964e+03 -1.018659936181383e-07)
"ZG" (-5.146474336994707e+03 4.045777480689523e-05)
"YL" (3.004726062913157e-04 9.169596351481661e-15)
"YG" (-3.017131671270136e-04 1.635210921461264e-14)
"freq" 6.309573444801911e-02
"loopGain" (1.004097672898716e+00 -9.478053020455281e-11)
"ZL" (3.328103980982963e+03 -1.142955209283546e-07)
"ZG" (-5.146474336994705e+03 4.539436994749093e-05)
"YL" (3.004726063005587e-04 1.028845612318409e-14)
"YG" (-3.017131671362567e-04 1.834736850723629e-14)
"freq" 7.079457843841354e-02
"loopGain" (1.004097672899299e+00 -1.063455039857499e-10)
"ZL" (3.328103980982964e+03 -1.282416878124491e-07)
"ZG" (-5.146474336994705e+03 5.093332080881395e-05)
"YL" (3.004726062913159e-04 1.154383769375163e-14)
"YG" (-3.017131671270138e-04 2.058608599573407e-14)
"freq" 7.943282347242786e-02
"loopGain" (1.004097672899299e+00 -1.193216180451765e-10)
"ZL" (3.328103980982963e+03 -1.438895372509504e-07)
"ZG" (-5.146474336994704e+03 5.714812588160036e-05)
"YL" (3.004726062913159e-04 1.295239935899951e-14)
"YG" (-3.017131671270138e-04 2.309796795591737e-14)
"freq" 8.912509381337422e-02
"loopGain" (1.004097672898914e+00 -1.338810574092460e-10)
"ZL" (3.328103981068962e+03 -1.614467219702151e-07)
"ZG" (-5.146474337127771e+03 6.412125187853676e-05)
"YL" (3.004726062913160e-04 1.453283095522471e-14)
"YG" (-3.017131671270139e-04 2.591634645647610e-14)
"freq" 9.999999999999962e-02
"loopGain" (1.004097672898914e+00 -1.502170171116680e-10)
"ZL" (3.328103981068960e+03 -1.811461973310763e-07)
"ZG" (-5.146474337127769e+03 7.194522791431214e-05)
"YL" (3.004726062913161e-04 1.630610450392980e-14)
"YG" (-3.017131671270140e-04 2.907861901333194e-14)
"freq" 1.122018454301959e-01
"loopGain" (1.004097672898914e+00 -1.685462653475496e-10)
"ZL" (3.328103981068959e+03 -2.032493767656642e-07)
"ZG" (-5.146474337127687e+03 8.072387341948914e-05)
"YL" (3.004726062913162e-04 1.829575017114151e-14)
"YG" (-3.017131671270141e-04 3.262674715861848e-14)
"freq" 1.258925411794162e-01
"loopGain" (1.004097672899299e+00 -1.891120201313658e-10)
"ZL" (3.328103980982958e+03 -2.280495514738989e-07)
"ZG" (-5.146474336994776e+03 9.057367567694662e-05)
"YL" (3.004726062913163e-04 2.052816946566038e-14)
"YG" (-3.017131671270142e-04 3.660781227747472e-14)
"freq" 1.412537544622748e-01
"loopGain" (1.004097672899299e+00 -2.121871765317720e-10)
"ZL" (3.328103980982957e+03 -2.558758018798874e-07)
"ZG" (-5.146474336994774e+03 1.016253355782867e-04)
"YL" (3.004726062913164e-04 2.303298495737398e-14)
"YG" (-3.017131671270144e-04 4.107464096308482e-14)
"freq" 1.584893192461107e-01
"loopGain" (1.004097672898331e+00 -2.380779277222715e-10)
"ZL" (3.328103981068954e+03 -2.870973794369095e-07)
"ZG" (-5.146474337127677e+03 1.140255019583351e-04)
"YL" (3.004726063005595e-04 2.584343299983164e-14)
"YG" (-3.017131671362575e-04 4.608650634440832e-14)
"freq" 1.778279410038915e-01
"loopGain" (1.004097672898914e+00 -2.671278284989672e-10)
"ZL" (3.328103981068951e+03 -3.221285589146939e-07)
"ZG" (-5.146474337127672e+03 1.279387174598514e-04)
"YL" (3.004726062913169e-04 2.899680924150206e-14)
"YG" (-3.017131671270148e-04 5.170991011955690e-14)
"freq" 1.995262314968871e-01
"loopGain" (1.004097672898331e+00 -2.997223532081756e-10)
"ZL" (3.328103981068946e+03 -3.614341885072431e-07)
"ZG" (-5.146474337127746e+03 1.435496020108332e-04)
"YL" (3.004726063005602e-04 3.253495484390071e-14)
"YG" (-3.017131671362581e-04 5.801947366537642e-14)
"freq" 2.238721138568329e-01
"loopGain" (1.004097672899299e+00 -3.362940116459830e-10)
"ZL" (3.328103980982941e+03 -4.055358148912484e-07)
"ZG" (-5.146474336994748e+03 1.610653025370878e-04)
"YL" (3.004726062913177e-04 3.650482147279028e-14)
"YG" (-3.017131671270157e-04 6.509891843338617e-14)
"freq" 2.511886431509568e-01
"loopGain" (1.004097672899299e+00 -3.773280870537394e-10)
"ZL" (3.328103980982934e+03 -4.550186706363180e-07)
"ZG" (-5.146474336994738e+03 1.807182417981182e-04)
"YL" (3.004726062913183e-04 4.095908220067530e-14)
"YG" (-3.017131671270162e-04 7.304218900014591e-14)
"freq" 2.818382931264440e-01
"loopGain" (1.004097672899299e+00 -4.233690770526604e-10)
"ZL" (3.328103980982928e+03 -5.105393459029285e-07)
"ZG" (-5.146474336994649e+03 2.027692023271052e-04)
"YL" (3.004726062913189e-04 4.595684695157629e-14)
"YG" (-3.017131671270168e-04 8.195468314962753e-14)
"freq" 3.162277660168364e-01
"loopGain" (1.004097672899299e+00 -4.750279173556218e-10)
"ZL" (3.328103980982917e+03 -5.728345723723283e-07)
"ZG" (-5.146474336994631e+03 2.275107869822575e-04)
"YL" (3.004726062913198e-04 5.156442946855743e-14)
"YG" (-3.017131671270176e-04 9.195466782300134e-14)
"freq" 3.548133892335737e-01
"loopGain" (1.004097672898914e+00 -5.329900895974382e-10)
"ZL" (3.328103981068905e+03 -6.427309628216406e-07)
"ZG" (-5.146474337127679e+03 2.552713015555329e-04)
"YL" (3.004726062913208e-04 5.785624173557080e-14)
"YG" (-3.017131671270187e-04 1.031748339703219e-13)
"freq" 3.981071705534953e-01
"loopGain" (1.004097672899299e+00 -5.980247165275665e-10)
"ZL" (3.328103980982890e+03 -7.211559866983953e-07)
"ZG" (-5.146474336994668e+03 2.864191111688182e-04)
"YL" (3.004726062913220e-04 6.491577056775210e-14)
"YG" (-3.017131671270200e-04 1.157640680903520e-13)
"freq" 4.466835921509609e-01
"loopGain" (1.004097672898914e+00 -6.709947680108504e-10)
"ZL" (3.328103981068870e+03 -8.091503579630000e-07)
"ZG" (-5.146474337127544e+03 3.213675284546383e-04)
"YL" (3.004726062913238e-04 7.283669379845139e-14)
"YG" (-3.017131671270216e-04 1.298894194962421e-13)
"freq" 5.011872336272697e-01
"loopGain" (1.004097672898914e+00 -7.528685122640620e-10)
"ZL" (3.328103981068846e+03 -9.078816355971166e-07)
"ZG" (-5.146474337127506e+03 3.605802975420819e-04)
"YL" (3.004726062913257e-04 8.172411179051272e-14)
"YG" (-3.017131671270236e-04 1.457383284950478e-13)
"freq" 5.623413251903461e-01
"loopGain" (1.004097672898914e+00 -8.447323646734406e-10)
"ZL" (3.328103981068813e+03 -1.018659924536896e-06)
"ZG" (-5.146474337127535e+03 4.045777480613543e-04)
"YL" (3.004726062913284e-04 9.169596379039846e-14)
"YG" (-3.017131671270263e-04 1.635210918705528e-13)
"freq" 6.309573444801898e-01
"loopGain" (1.004097672899299e+00 -9.478053022013090e-10)
"ZL" (3.328103980982775e+03 -1.142955209281585e-06)
"ZG" (-5.146474336994404e+03 4.539436994748645e-04)
"YL" (3.004726062913317e-04 1.028845633655042e-13)
"YG" (-3.017131671270296e-04 1.834736829386889e-13)
"freq" 7.079457843841340e-01
"loopGain" (1.004097672899299e+00 -1.063455040277889e-09)
"ZL" (3.328103980982724e+03 -1.282416826861706e-06)
"ZG" (-5.146474336994324e+03 5.093332080088223e-04)
"YL" (3.004726062913359e-04 1.154383799677337e-13)
"YG" (-3.017131671270338e-04 2.058608569271170e-13)
"freq" 7.943282347242770e-01
"loopGain" (1.004097672898914e+00 -1.193216180212231e-09)
"ZL" (3.328103981068662e+03 -1.438895404628057e-06)
"ZG" (-5.146474337127212e+03 5.714812588803399e-04)
"YL" (3.004726062913412e-04 1.295239919373929e-13)
"YG" (-3.017131671270391e-04 2.309796812117840e-13)
"freq" 8.912509381337405e-01
"loopGain" (1.004097672899299e+00 -1.338810574389882e-09)
"ZL" (3.328103980982583e+03 -1.614467143269131e-06)
"ZG" (-5.146474336994183e+03 6.412125186506203e-04)
"YL" (3.004726062913476e-04 1.453283090015619e-13)
"YG" (-3.017131671270455e-04 2.591634651154628e-13)
"freq" 9.999999999999942e-01
"loopGain" (1.004097672898914e+00 -1.502170170955308e-09)
"ZL" (3.328103981068486e+03 -1.811461993804410e-06)
"ZG" (-5.146474337127012e+03 7.194522791747384e-04)
"YL" (3.004726062913560e-04 1.630610439376863e-13)
"YG" (-3.017131671270539e-04 2.907861912349515e-13)
"freq" 1.122018454301957e+00
"loopGain" (1.004097672899298e+00 -1.685462653196710e-09)
"ZL" (3.328103980982361e+03 -2.032493796142946e-06)
"ZG" (-5.146474336993748e+03 8.072387342180236e-04)
"YL" (3.004726062913664e-04 1.829574995079628e-13)
"YG" (-3.017131671270643e-04 3.262674737896411e-13)
"freq" 1.258925411794160e+00
"loopGain" (1.004097672898913e+00 -1.891120201285555e-09)
"ZL" (3.328103981068204e+03 -2.280495547251025e-06)
"ZG" (-5.146474337126565e+03 9.057367568428236e-04)
"YL" (3.004726062913795e-04 2.052816963096207e-13)
"YG" (-3.017131671270775e-04 3.660781211217130e-13)
"freq" 1.412537544622746e+00
"loopGain" (1.004097672899298e+00 -2.121871764727979e-09)
"ZL" (3.328103980982006e+03 -2.558758049519619e-06)
"ZG" (-5.146474336993262e+03 1.016253355829995e-03)
"YL" (3.004726062913961e-04 2.303298424120773e-13)
"YG" (-3.017131671270941e-04 4.107464167924518e-13)
"freq" 1.584893192461104e+00
"loopGain" (1.004097672899298e+00 -2.380779278185195e-09)
"ZL" (3.328103980981757e+03 -2.870973740452198e-06)
"ZG" (-5.146474336992867e+03 1.140255019470224e-03)
"YL" (3.004726062914170e-04 2.584343408671222e-13)
"YG" (-3.017131671271149e-04 4.608650525752812e-13)
"freq" 1.778279410038912e+00
"loopGain" (1.004097672899298e+00 -2.671278285840637e-09)
"ZL" (3.328103980981445e+03 -3.221285487624807e-06)
"ZG" (-5.146474336992371e+03 1.279387174407969e-03)
"YL" (3.004726062914431e-04 2.899680990265081e-13)
"YG" (-3.017131671271411e-04 5.170990945840487e-13)
"freq" 1.995262314968867e+00
"loopGain" (1.004097672898913e+00 -2.997223532873861e-09)
"ZL" (3.328103981067050e+03 -3.614341864464014e-06)
"ZG" (-5.146474337124651e+03 1.435496020075614e-03)
"YL" (3.004726062914762e-04 3.253495584917823e-13)
"YG" (-3.017131671271741e-04 5.801947266009721e-13)
"freq" 2.238721138568325e+00
"loopGain" (1.004097672898912e+00 -3.362940115519302e-09)
"ZL" (3.328103981066554e+03 -4.055358286363748e-06)
"ZG" (-5.146474337123786e+03 1.610653025623719e-03)
"YL" (3.004726062915177e-04 3.650482092193285e-13)
"YG" (-3.017131671272156e-04 6.509891898424356e-13)
"freq" 2.511886431509564e+00
"loopGain" (1.004097672899296e+00 -3.773280870838134e-09)
"ZL" (3.328103980979931e+03 -4.550186747156560e-06)
"ZG" (-5.146474336989964e+03 1.807182418042667e-03)
"YL" (3.004726062915700e-04 4.095908297202362e-13)
"YG" (-3.017131671272679e-04 7.304218822880013e-13)
"freq" 2.818382931264435e+00
"loopGain" (1.004097672899296e+00 -4.233690769622699e-09)
"ZL" (3.328103980979144e+03 -5.105393520238695e-06)
"ZG" (-5.146474336988636e+03 2.027692023363570e-03)
"YL" (3.004726062916359e-04 4.595684596002898e-13)
"YG" (-3.017131671273338e-04 8.195468414118672e-13)
"freq" 3.162277660168358e+00
"loopGain" (1.004097672898910e+00 -4.750279172687793e-09)
"ZL" (3.328103981064155e+03 -5.728345830773934e-06)
"ZG" (-5.146474337120050e+03 2.275107870043341e-03)
"YL" (3.004726062917188e-04 5.156442880755891e-13)
"YG" (-3.017131671274168e-04 9.195466848399493e-13)
"freq" 3.548133892335731e+00
"loopGain" (1.004097672899294e+00 -5.329900896380494e-09)
"ZL" (3.328103980976909e+03 -6.427309589029976e-06)
"ZG" (-5.146474336985163e+03 2.552713015424321e-03)
"YL" (3.004726062918231e-04 5.785624217643444e-13)
"YG" (-3.017131671275211e-04 1.031748335294516e-12)
"freq" 3.981071705534945e+00
"loopGain" (1.004097672898908e+00 -5.980247164520794e-09)
"ZL" (3.328103981061342e+03 -7.211560042437099e-06)
"ZG" (-5.146474337115581e+03 2.864191112026660e-03)
"YL" (3.004726062919546e-04 6.491577056791894e-13)
"YG" (-3.017131671276525e-04 1.157640680901820e-12)
"freq" 4.466835921509600e+00
"loopGain" (1.004097672898906e+00 -6.709947680367958e-09)
"ZL" (3.328103981059368e+03 -8.091503455388682e-06)
"ZG" (-5.146474337112525e+03 3.213675284345062e-03)
"YL" (3.004726062921199e-04 7.283669335796430e-13)
"YG" (-3.017131671278179e-04 1.298894199367279e-12)
"freq" 5.011872336272687e+00
"loopGain" (1.004097672899289e+00 -7.528685124443311e-09)
"ZL" (3.328103980970882e+03 -9.078816183904514e-06)
"ZG" (-5.146474336975588e+03 3.605802975048895e-03)
"YL" (3.004726062923282e-04 8.172411355375278e-13)
"YG" (-3.017131671280262e-04 1.457383267318035e-12)
"freq" 5.623413251903450e+00
"loopGain" (1.004097672898902e+00 -8.447323646619782e-09)
"ZL" (3.328103981053753e+03 -1.018659932494320e-05)
"ZG" (-5.146474337103524e+03 4.045777480718132e-03)
"YL" (3.004726062925904e-04 9.169596423151728e-13)
"YG" (-3.017131671282883e-04 1.635210914294263e-12)
"freq" 6.309573444801886e+00
"loopGain" (1.004097672898899e+00 -9.478053019701656e-09)
"ZL" (3.328103981049813e+03 -1.142955242683548e-05)
"ZG" (-5.146474337097343e+03 4.539436995356097e-03)
"YL" (3.004726062929205e-04 1.028845620437959e-12)
"YG" (-3.017131671286185e-04 1.834736842603954e-12)
"freq" 7.079457843841326e+00
"loopGain" (1.004097672899279e+00 -1.063455040226686e-08)
"ZL" (3.328103980958855e+03 -1.282416830473644e-05)
"ZG" (-5.146474336956395e+03 5.093332080107565e-03)
"YL" (3.004726062933361e-04 1.154383795276621e-12)
"YG" (-3.017131671290340e-04 2.058608573671937e-12)
"freq" 7.943282347242755e+00
"loopGain" (1.004097672898890e+00 -1.193216180278526e-08)
"ZL" (3.328103981038611e+03 -1.438895387534333e-05)
"ZG" (-5.146474337079461e+03 5.714812588487283e-03)
"YL" (3.004726062938592e-04 1.295239919382961e-12)
"YG" (-3.017131671295570e-04 2.309796812108733e-12)
"freq" 8.912509381337388e+00
"loopGain" (1.004097672899268e+00 -1.338810574241996e-08)
"ZL" (3.328103980944753e+03 -1.614467166898655e-05)
"ZG" (-5.146474336934067e+03 6.412125186798505e-03)
"YL" (3.004726062945177e-04 1.453283085620437e-12)
"YG" (-3.017131671302157e-04 2.591634655549744e-12)
"freq" 9.999999999999924e+00
"loopGain" (1.004097672899458e+00 -1.502170171334833e-08)
"ZL" (3.328103981020858e+03 -1.811461959618245e-05)
"ZG" (-5.146474337051331e+03 7.194522791115318e-03)
"YL" (3.004726062861040e-04 1.630610473207792e-12)
"YG" (-3.017131671218020e-04 2.907861878518374e-12)
"freq" 1.122018454301955e+01
"loopGain" (1.004097672899448e+00 -1.685462653654302e-08)
"ZL" (3.328103981008402e+03 -2.032493783120456e-05)
"ZG" (-5.146474337031539e+03 8.072387342041366e-03)
"YL" (3.004726062871477e-04 1.829575055079775e-12)
"YG" (-3.017131671228457e-04 3.262674677896502e-12)
"freq" 1.258925411794157e+01
"loopGain" (1.004097672898852e+00 -1.891120201124785e-08)
"ZL" (3.328103980992720e+03 -2.280495487086811e-05)
"ZG" (-5.146474337006540e+03 9.057367567292232e-03)
"YL" (3.004726062977048e-04 2.052816901425486e-12)
"YG" (-3.017131671334027e-04 3.660781272887930e-12)
"freq" 1.412537544622743e+01
"loopGain" (1.004097672899419e+00 -2.121871765072764e-08)
"ZL" (3.328103980973300e+03 -2.558757978694886e-05)
"ZG" (-5.146474336975542e+03 1.016253355717689e-02)
"YL" (3.004726062900944e-04 2.303298427743152e-12)
"YG" (-3.017131671257923e-04 4.107464164302496e-12)
"freq" 1.584893192461101e+01
"loopGain" (1.004097672899014e+00 -2.380779277882799e-08)
"ZL" (3.328103981034446e+03 -2.870973760538780e-05)
"ZG" (-5.146474337069035e+03 1.140255019518983e-02)
"YL" (3.004726062921771e-04 2.584343374050895e-12)
"YG" (-3.017131671278749e-04 4.608650560372967e-12)
"freq" 1.778279410038909e+01
"loopGain" (1.004097672898988e+00 -2.671278285690415e-08)
"ZL" (3.328103981003158e+03 -3.221285452960662e-05)
"ZG" (-5.146474337019320e+03 1.279387174362353e-02)
"YL" (3.004726062947990e-04 2.899680944563744e-12)
"YG" (-3.017131671304968e-04 5.170990991542011e-12)
"freq" 1.995262314968863e+01
"loopGain" (1.004097672899539e+00 -2.997223533860030e-08)
"ZL" (3.328103980963887e+03 -3.614341658601782e-05)
"ZG" (-5.146474336956912e+03 1.435496019712454e-02)
"YL" (3.004726062888459e-04 3.253495596330573e-12)
"YG" (-3.017131671245438e-04 5.801947254596874e-12)
"freq" 2.238721138568321e+01
"loopGain" (1.004097672898730e+00 -3.362940115451724e-08)
"ZL" (3.328103981086541e+03 -4.055358301815608e-05)
"ZG" (-5.146474337144304e+03 1.610653025656612e-02)
"YL" (3.004726062929796e-04 3.650482093467863e-12)
"YG" (-3.017131671286774e-04 6.509891897150059e-12)
"freq" 2.511886431509559e+01
"loopGain" (1.004097672899646e+00 -3.773280870986264e-08)
"ZL" (3.328103980938112e+03 -4.550186652783948e-05)
"ZG" (-5.146474336912115e+03 1.807182417873179e-02)
"YL" (3.004726062889680e-04 4.095908252050841e-12)
"YG" (-3.017131671246658e-04 7.304218868031654e-12)
"freq" 2.818382931264430e+01
"loopGain" (1.004097672898814e+00 -4.233690769787946e-08)
"ZL" (3.328103981031437e+03 -5.105393508366549e-05)
"ZG" (-5.146474337053202e+03 2.027692023375603e-02)
"YL" (3.004726062955539e-04 4.595684617235431e-12)
"YG" (-3.017131671312517e-04 8.195468392885561e-12)
"freq" 3.162277660168353e+01
"loopGain" (1.004097672899316e+00 -4.750279173400882e-08)
"ZL" (3.328103980932694e+03 -5.728345658481365e-05)
"ZG" (-5.146474336896164e+03 2.275107869685581e-02)
"YL" (3.004726062945912e-04 5.156442885080136e-12)
"YG" (-3.017131671302890e-04 9.195466844075409e-12)
"freq" 3.548133892335724e+01
"loopGain" (1.004097672899412e+00 -5.329900895641163e-08)
"ZL" (3.328103980894453e+03 -6.427309560737286e-05)
"ZG" (-5.146474336831672e+03 2.552713015314948e-02)
"YL" (3.004726062957644e-04 5.785624094252112e-12)
"YG" (-3.017131671314622e-04 1.031748347633666e-11)
"freq" 3.981071705534938e+01
"loopGain" (1.004097672899297e+00 -5.980247165364317e-08)
"ZL" (3.328103980995879e+03 -7.211559986221510e-05)
"ZG" (-5.146474336981662e+03 2.864191111879855e-02)
"YL" (3.004726062903975e-04 6.491577152238152e-12)
"YG" (-3.017131671260952e-04 1.157640671357159e-11)
"freq" 4.466835921509592e+01
"loopGain" (1.004097672899532e+00 -6.709947681533183e-08)
"ZL" (3.328103980970661e+03 -8.091503273636300e-05)
"ZG" (-5.146474336934203e+03 3.213675283973269e-02)
"YL" (3.004726062884437e-04 7.283669389953189e-12)
"YG" (-3.017131671241414e-04 1.298894193951504e-11)
"freq" 5.011872336272678e+01
"loopGain" (1.004097672899726e+00 -7.528685125396301e-08)
"ZL" (3.328103980894688e+03 -9.078815859157917e-05)
"ZG" (-5.146474336805995e+03 3.605802974456963e-02)
"YL" (3.004726062907408e-04 8.172411279185307e-12)
"YG" (-3.017131671264385e-04 1.457383274936984e-11)
"freq" 5.623413251903440e+01
"loopGain" (1.004097672899297e+00 -8.447323648178079e-08)
"ZL" (3.328103981012366e+03 -1.018659920726120e-04)
"ZG" (-5.146474336974336e+03 4.045777480475626e-02)
"YL" (3.004726062891873e-04 9.169596580238772e-12)
"YG" (-3.017131671248849e-04 1.635210898585641e-11)
"freq" 6.309573444801875e+01
"loopGain" (1.004097672899187e+00 -9.478053020437964e-08)
"ZL" (3.328103980962825e+03 -1.142955227964409e-04)
"ZG" (-5.146474336880847e+03 4.539436994995597e-02)
"YL" (3.004726062944335e-04 1.028845623312715e-11)
"YG" (-3.017131671301311e-04 1.834736839729208e-11)
"freq" 7.079457843841314e+01
"loopGain" (1.004097672899390e+00 -1.063455040043495e-07)
"ZL" (3.328103980983978e+03 -1.282416860469975e-04)
"ZG" (-5.146474336892039e+03 5.093332080588959e-02)
"YL" (3.004726062896860e-04 1.154383785664777e-11)
"YG" (-3.017131671253834e-04 2.058608583283773e-11)
"freq" 7.943282347242742e+01
"loopGain" (1.004097672899103e+00 -1.193216180154300e-07)
"ZL" (3.328103980962933e+03 -1.438895375348912e-04)
"ZG" (-5.146474336832299e+03 5.714812588139900e-02)
"YL" (3.004726062956869e-04 1.295239893076704e-11)
"YG" (-3.017131671313841e-04 2.309796838414927e-11)
"freq" 8.912509381337372e+01