HEADER
"PSFversion" "1.00"
"simulator" "spectre"
"version" "25.1.0.235.isr5"
"date" "9:10:27 AM, Fri Jul 24, 2026"
"design" "// tb_nmc3d.scs -- behavioral fully-differential gm-C THREE-stage
"
"analysis type" "dc"
"analysis name" "dcOp"
"analysis description" "DC Analysis `dcOp'"
"xVecSorted" "unsorted"
"tolerance.relative" 1.000000000000000e-03
"reltol" 1.000000000000000e-03
"abstol(V)" 1.000000000000000e-06
"abstol(I)" 1.000000000000000e-12
"temp" 2.700000000000000e+01
"tnom" 2.700000000000000e+01
"tempeffects" "all"
"gmindc" 1.000000000000000e-12
TYPE
"LogicV" FLOAT DOUBLE PROP(
"key" "node"
)
"V" FLOAT DOUBLE PROP(
"units" "V"
"key" "node"
"tolerance" 1.000000000000000e-06
)
"I" FLOAT DOUBLE PROP(
"units" "A"
"key" "branch"
"tolerance" 1.000000000000000e-12
)
"MMF" FLOAT DOUBLE PROP(
"units" "A*turn"
"key" "node"
"tolerance" 1.000000000000000e-12
)
"Wb" FLOAT DOUBLE PROP(
"units" "Wb"
"key" "node"
"tolerance" 1.000000000000000e-09
)
"Temp" FLOAT DOUBLE PROP(
"units" "C"
"key" "node"
"tolerance" 1.000000000000000e-04
)
"Pwr" FLOAT DOUBLE PROP(
"units" "W"
"key" "node"
"tolerance" 1.000000000000000e-09
)
"U" FLOAT DOUBLE PROP(
"units" ""
"key" "node"
"tolerance" 1.000000000000000e-06
)
"V/Sec" FLOAT DOUBLE PROP(
"units" "V/s"
"key" "node"
"tolerance" 9.999999999999999e-05
)
"I/Sec" FLOAT DOUBLE PROP(
"units" "A/s"
"key" "node"
"tolerance" 1.000000000000000e-06
)
"1/Sec" FLOAT DOUBLE PROP(
"units" "1/s"
"key" "node"
"tolerance" 9.999999999999999e-05
)
"HOD" FLOAT DOUBLE PROP(
"units" ""
"key" "node"
"tolerance" 1.000000000000000e-02
)
"Q" FLOAT DOUBLE PROP(
"units" "Coul"
"key" "node"
"tolerance" 1.000000000000000e-15
)
"Efield" FLOAT DOUBLE PROP(
"units" "V/m"
"key" "node"
"tolerance" 1.000000000000000e-06
"sigtype" "optical"
)
VALUE
"n1p" "V" 0.000000000000000e+00
"inp" "V" 0.000000000000000e+00
"inn" "V" 0.000000000000000e+00
"n2p" "V" 0.000000000000000e+00
"outp" "V" 0.000000000000000e+00
"n2ip" "V" 0.000000000000000e+00
"n1ip" "V" 0.000000000000000e+00
"n1n" "V" 0.000000000000000e+00
"n2n" "V" 0.000000000000000e+00
"outn" "V" 0.000000000000000e+00
"n2in" "V" 0.000000000000000e+00
"n1in" "V" 0.000000000000000e+00
"dmi" "V" 0.000000000000000e+00
"cmi" "V" 0.000000000000000e+00
"dmo" "V" 0.000000000000000e+00
"cmo" "V" 0.000000000000000e+00
"voutp" "V" 0.000000000000000e+00
"voutn" "V" 0.000000000000000e+00
"FBN:in" "I" 0.000000000000000e+00
"FBP:in" "I" 0.000000000000000e+00
"IPRB1n:in" "I" 0.000000000000000e+00
"IPRB1p:in" "I" 0.000000000000000e+00
"IPRB2n:in" "I" 0.000000000000000e+00
"IPRB2p:in" "I" 0.000000000000000e+00
"IPRB_CM:in" "I" 0.000000000000000e+00
"IPRB_DM:in" "I" 0.000000000000000e+00
END
