HEADER
"PSFversion" "1.00"
"simulator" "spectre"
"version" "25.1.0.235.isr5"
"date" "9:10:27 AM, Fri Jul 24, 2026"
"design" "// tb_nmc3d.scs -- behavioral fully-differential gm-C THREE-stage"
"analysis type" "margin.stb"
"analysis name" "stb"
"analysis description" "Stability Analysis `stb': freq = (1 Hz -> 10 GHz)"
"xVecSorted" "ascending"
"tolerance.relative" 1.000000000000000e-03
"operating point producer" "stb"
"probe" "IPRB_DM"
TYPE
"dB" FLOAT DOUBLE PROP(
"key" "gain"
"units" "dB"
)
"Deg" FLOAT DOUBLE PROP(
"key" "gain"
"units" "Deg"
)
"Hz" FLOAT DOUBLE PROP(
"key" "gain"
"units" "Hz"
)
"stbstate" STRING *
VALUE
"gainMargin" "dB" 1.270982289725994e+01
"gainMarginFreq" "Hz" 2.847102256804768e+07
"phaseMargin" "Deg" 7.551022765969226e+01
"phaseMarginFreq" "Hz" 5.399754435444556e+06
"stb_state" "stbstate" "The circuit is stable. Gain and phase margin are both found."
END
