HEADER
"PSFversion" "1.00"
"simulator" "spectre"
"version" "25.1.0.235.isr5"
"date" "9:10:27 AM, Fri Jul 24, 2026"
"design" "// tb_nmc3d.scs -- behavioral fully-differential gm-C THREE-stage"
"analysis type" "stb"
"analysis name" "stb"
"analysis description" "Stability Analysis `stb': freq = (1 Hz -> 10 GHz)"
"xVecSorted" "ascending"
"tolerance.relative" 1.000000000000000e-03
"operating point producer" "stb"
"probe" "IPRB_DM"
"marginFilename" "stb.margin.stb"
TYPE
"sweep" FLOAT DOUBLE PROP(
"key" "sweep"
)
"LOOPGAIN" COMPLEX DOUBLE PROP(
"key" "gain"
)
"IMPEDANCE" COMPLEX DOUBLE PROP(
"key" "advprobe"
)
"ADMITTANCE" COMPLEX DOUBLE PROP(
"key" "advprobe"
)
SWEEP
"freq" "sweep" PROP(
"sweep_direction" 0
"units" "Hz"
"plot" 0
"grid" 3
)
TRACE
"loopGain" "LOOPGAIN"
"ZL" "IMPEDANCE"
"ZG" "IMPEDANCE"
"YL" "ADMITTANCE"
"YG" "ADMITTANCE"
VALUE
"freq" 1.000000000000000e+00
"loopGain" (-7.198656239733339e+04 9.832658653707487e+02)
"ZL" (2.879462639807658e+16 -3.933063854543595e+14)
"ZG" (3.999999999958130e+11 5.723350827823705e-02)
"YL" (3.600049999659031e+00 -3.823890657319452e-05)
"YG" (2.500000000000000e-12 3.861142842110968e-33)
"freq" 1.059253725177289e+00
"loopGain" (-7.198492398390934e+04 1.041504325654058e+03)
"ZL" (2.879397103291006e+16 -4.166017719035482e+14)
"ZG" (4.000000000000000e+11 -6.351418278038472e-05)
"YL" (3.600049999633038e+00 -4.050470423639663e-05)
"YG" (2.500000000000000e-12 5.546755276471473e-33)
"freq" 1.122018454301963e+00
"loopGain" (-7.198308574117952e+04 1.103189164514815e+03)
"ZL" (2.879323573570790e+16 -4.412757099130282e+14)
"ZG" (4.000000000000000e+11 6.351256213459762e-05)
"YL" (3.600049999577435e+00 -4.290475884595091e-05)
"YG" (2.500000000000000e-12 0.000000000000000e+00)
"freq" 1.188502227437018e+00
"loopGain" (-7.198102331255752e+04 1.168523751213910e+03)
"ZL" (2.879241076413544e+16 -4.674095472035045e+14)
"ZG" (3.999999999999999e+11 8.468099178652504e-07)
"YL" (3.600049999538634e+00 -4.544702563877290e-05)
"YG" (2.500000000000000e-12 -5.546755276326021e-33)
"freq" 1.258925411794167e+00
"loopGain" (-7.197870936934791e+04 1.237723346725723e+03)
"ZL" (2.879148518671287e+16 -4.950893881732609e+14)
"ZG" (4.000000000000001e+11 8.467827173837907e-07)
"YL" (3.600049999445018e+00 -4.813993119766315e-05)
"YG" (2.500000000000000e-12 0.000000000000000e+00)
"freq" 1.333521432163324e+00
"loopGain" (-7.197611325838663e+04 1.311015778790948e+03)
"ZL" (2.879044674217271e+16 -5.244063639276210e+14)
"ZG" (3.999999999999999e+11 0.000000000000000e+00)
"YL" (3.600049999390047e+00 -5.099240145142268e-05)
"YG" (2.500000000000000e-12 -5.546755276097086e-33)
"freq" 1.412537544622754e+00
"loopGain" (-7.197320059862343e+04 1.388642151151970e+03)
"ZL" (2.878928167809282e+16 -5.554569159730990e+14)
"ZG" (4.000000000000000e+11 0.000000000000000e+00)
"YL" (3.600049999325492e+00 -5.401389119398608e-05)
"YG" (2.500000000000000e-12 0.000000000000000e+00)
"freq" 1.496235656094433e+00
"loopGain" (-7.196993281971203e+04 1.470857587792535e+03)
"ZL" (2.878797456633238e+16 -5.883430939132935e+14)
"ZG" (4.000000000000000e+11 6.604100479901760e-05)
"YL" (3.600049999250179e+00 -5.721441545982096e-05)
"YG" (2.500000000000000e-12 -5.546755275881585e-33)
"freq" 1.584893192461113e+00
"loopGain" (-7.196626666495568e+04 1.557932014092548e+03)
"ZL" (2.878650810421007e+16 -6.231728679108538e+14)
"ZG" (4.000000000000000e+11 6.434437042124228e-05)
"YL" (3.600049999186388e+00 -6.060458270827689e-05)
"YG" (2.500000000000000e-12 -5.546755275783299e-33)
"freq" 1.678804018122560e+00
"loopGain" (-7.196215361875667e+04 1.650150974351698e+03)
"ZL" (2.878486288578498e+16 -6.600604557107514e+14)
"ZG" (4.000000000041855e+11 -9.598615922148898e-02)
"YL" (3.600049999061932e+00 -6.419563000026016e-05)
"YG" (2.500000000000000e-12 4.611408433648577e-33)
"freq" 1.778279410038923e+00
"loopGain" (-7.195753926282274e+04 1.747816486426459e+03)
"ZL" (2.878301714283382e+16 -6.991266644260379e+14)
"ZG" (4.000000000000001e+11 0.000000000000000e+00)
"YL" (3.600049998945795e+00 -6.799946020750781e-05)
"YG" (2.499999999999999e-12 0.000000000000000e+00)
"freq" 1.883649089489801e+00
"loopGain" (-7.195236257372920e+04 1.851247934606209e+03)
"ZL" (2.878094646688617e+16 -7.404992478264901e+14)
"ZG" (4.000000000000001e+11 0.000000000000000e+00)
"YL" (3.600049998836238e+00 -7.202868153927050e-05)
"YG" (2.500000000000000e-12 -1.109351055048762e-32)
"freq" 1.995262314968880e+00
"loopGain" (-7.194655512064442e+04 1.960782999078267e+03)
"ZL" (2.877862348530426e+16 -7.843132779864939e+14)
"ZG" (4.000000000000001e+11 -1.692809485930018e-06)
"YL" (3.600049998683967e+00 -7.629664923522277e-05)
"YG" (2.500000000000000e-12 0.000000000000000e+00)
"freq" 2.113489039836647e+00
"loopGain" (-7.194004016642302e+04 2.076778621735215e+03)
"ZL" (2.877601750322536e+16 -8.307115316770820e+14)
"ZG" (4.000000000000001e+11 0.000000000000000e+00)
"YL" (3.600049998533800e+00 -8.081750992074282e-05)
"YG" (2.499999999999999e-12 0.000000000000000e+00)
"freq" 2.238721138568339e+00
"loopGain" (-7.193273167298271e+04 2.199612007718317e+03)
"ZL" (2.877309410541140e+16 -8.798448909695101e+14)
"ZG" (4.000000000000001e+11 1.252438526759233e-04)
"YL" (3.600049998359580e+00 -8.560624843864361e-05)
"YG" (2.500000000000000e-12 1.109351054901880e-32)
"freq" 2.371373705661655e+00
"loopGain" (-7.192453317619744e+04 2.329681659479661e+03)
"ZL" (2.876981470620620e+16 -9.318727568601988e+14)
"ZG" (3.999999999999999e+11 -1.269218811246433e-04)
"YL" (3.600049998181919e+00 -9.067873755325190e-05)
"YG" (2.500000000000000e-12 0.000000000000000e+00)
"freq" 2.511886431509580e+00
"loopGain" (-7.191533653554527e+04 2.467408441477416e+03)
"ZL" (2.876613604939455e+16 -9.869634751487326e+14)
"ZG" (3.999999999999999e+11 0.000000000000000e+00)
"YL" (3.600049997926782e+00 -9.605179054282816e-05)
"YG" (2.500000000000000e-12 0.000000000000000e+00)
"freq" 2.660725059798810e+00
"loopGain" (-7.190502053414036e+04 2.613236671069919e+03)
"ZL" (2.876200964821488e+16 -1.045294772795697e+15)
"ZG" (3.999999999999999e+11 1.285793083545566e-04)
"YL" (3.600049997637674e+00 -1.017432169315834e-04)
"YG" (2.500000000000000e-12 -1.109351054679426e-32)
"freq" 2.818382931264454e+00
"loopGain" (-7.189344931237937e+04 2.767635230305693e+03)
"ZL" (2.875738115881775e+16 -1.107054202638622e+15)
"ZG" (4.000000000000000e+11 0.000000000000000e+00)
"YL" (3.600049997381116e+00 -1.077718815407114e-04)
"YG" (2.500000000000000e-12 0.000000000000000e+00)
"freq" 2.985382618917960e+00
"loopGain" (-7.188047062129347e+04 2.931098692142294e+03)
"ZL" (2.875218968190660e+16 -1.172439593904031e+15)
"ZG" (4.000000000041807e+11 -1.706105060574166e-01)
"YL" (3.600049997081742e+00 -1.141577669924194e-04)
"YG" (2.500000000000000e-12 -1.152698872417911e-32)
"freq" 3.162277660168379e+00
"loopGain" (-7.186591386952785e+04 3.104148452012230e+03)
"ZL" (2.874636697972947e+16 -1.241659504685372e+15)
"ZG" (3.999999999958201e+11 1.805557546343815e-01)
"YL" (3.600049996687201e+00 -1.209220399260195e-04)
"YG" (2.500000000000000e-12 1.116495200417641e-33)
"freq" 3.349654391578276e+00
"loopGain" (-7.184958794049700e+04 3.287333853655310e+03)
"ZL" (2.873983660714072e+16 -1.314933672623364e+15)
"ZG" (3.999999999958212e+11 1.914727839621776e-01)
"YL" (3.600049996262332e+00 -1.280871212371804e-04)
"YG" (2.499999999999999e-12 1.839983525452254e-33)
"freq" 3.548133892335754e+00
"loopGain" (-7.183127877534025e+04 3.481233297444267e+03)
"ZL" (2.873251294028273e+16 -1.392493457869064e+15)
"ZG" (4.000000000000000e+11 0.000000000000000e+00)
"YL" (3.600049995847705e+00 -1.356767603021719e-04)
"YG" (2.500000000000000e-12 2.218702108255697e-32)
"freq" 3.758374042884441e+00
"loopGain" (-7.181074666017594e+04 3.686455311515049e+03)
"ZL" (2.872430009298960e+16 -1.474582271643121e+15)
"ZG" (4.000000000000000e+11 1.284108630244292e-04)
"YL" (3.600049995318080e+00 -1.437161137594159e-04)
"YG" (2.500000000000000e-12 2.218702107929291e-32)
"freq" 3.981071705534972e+00
"loopGain" (-7.178772321574549e+04 3.903639567426882e+03)
"ZL" (2.871509071354280e+16 -1.561455982587916e+15)
"ZG" (3.999999999958247e+11 2.272211704742630e-01)
"YL" (3.600049994735903e+00 -1.522318288460719e-04)
"YG" (2.499999999999999e-12 1.537148650329119e-32)
"freq" 4.216965034285822e+00
"loopGain" (-7.176190805602424e+04 4.133457815503633e+03)
"ZL" (2.870476464811273e+16 -1.653383290921004e+15)
"ZG" (3.999999999958262e+11 2.405999958947982e-01)
"YL" (3.600049994139044e+00 -1.612521317727999e-04)
"YG" (2.499999999999999e-12 3.846932540983247e-32)
"freq" 4.466835921509631e+00
"loopGain" (-7.173296506533910e+04 4.376614707887926e+03)
"ZL" (2.869318745011120e+16 -1.750646057494284e+15)
"ZG" (3.999999999958278e+11 2.547513402438401e-01)
"YL" (3.600049993399180e+00 -1.708069212404464e-04)
"YG" (2.500000000000000e-12 -4.939929546474433e-33)
"freq" 4.731512589614804e+00
"loopGain" (-7.170051827566439e+04 4.633848474742900e+03)
"ZL" (2.868020873260357e+16 -1.853539574438206e+15)
"ZG" (3.999999999999998e+11 -2.564278214439947e-04)
"YL" (3.600049992575364e+00 -1.809278675869672e-04)
"YG" (2.500000000000001e-12 -4.437404212477923e-32)
"freq" 5.011872336272723e+00
"loopGain" (-7.166414730553042e+04 4.905931410227520e+03)
"ZL" (2.866566034267868e+16 -1.962372759409470e+15)
"ZG" (4.000000000041682e+11 -2.855630161428338e-01)
"YL" (3.600049991701608e+00 -1.916485176884859e-04)
"YG" (2.500000000000000e-12 2.835466094060152e-33)
"freq" 5.308844442309884e+00
"loopGain" (-7.162338230567139e+04 5.193670114336898e+03)
"ZL" (2.864935434000884e+16 -2.077468252348036e+15)
"ZG" (3.999999999999999e+11 -2.527817502849980e-04)
"YL" (3.600049990692454e+00 -2.030044062570287e-04)
"YG" (2.500000000000000e-12 2.218702105078528e-32)
"freq" 5.623413251903491e+00
"loopGain" (-7.157769840152202e+04 5.497905433005612e+03)
"ZL" (2.863108077562934e+16 -2.199162391779069e+15)
"ZG" (4.000000000000001e+11 -6.736550546126492e-06)
"YL" (3.600049989531442e+00 -2.150331734969831e-04)
"YG" (2.499999999999999e-12 2.218702104362999e-32)
"freq" 5.956621435290105e+00
"loopGain" (-7.152650954407699e+04 5.819512016837656e+03)
"ZL" (2.861060522960656e+16 -2.327805037932424e+15)
"ZG" (4.000000000000000e+11 -2.490742590278512e-04)
"YL" (3.600049988247108e+00 -2.277746900011345e-04)
"YG" (2.499999999999999e-12 2.218702103571468e-32)
"freq" 6.309573444801933e+00
"loopGain" (-7.146916179252016e+04 6.159397421648338e+03)
"ZL" (2.858766612587105e+16 -2.463759213214746e+15)
"ZG" (4.000000000041568e+11 -3.585208471857267e-01)
"YL" (3.600049986818704e+00 -2.412711888152689e-04)
"YG" (2.500000000000001e-12 -2.436216427680803e-32)
"freq" 6.683439175686147e+00
"loopGain" (-7.140492593519563e+04 6.518500641996430e+03)
"ZL" (2.856197177912784e+16 -2.607400515379450e+15)
"ZG" (4.000000000041530e+11 -3.794283057494831e-01)
"YL" (3.600049985222932e+00 -2.555674054427698e-04)
"YG" (2.500000000000000e-12 -2.580571325472880e-32)
"freq" 7.079457843841380e+00
"loopGain" (-7.133298943897523e+04 6.897789963132012e+03)
"ZL" (2.853319717608138e+16 -2.759116258546812e+15)
"ZG" (3.999999999999999e+11 0.000000000000000e+00)
"YL" (3.600049983409917e+00 -2.707107261477077e-04)
"YG" (2.500000000000001e-12 -2.218702100590319e-32)
"freq" 7.498942093324560e+00
"loopGain" (-7.125244772090456e+04 7.298259998981097e+03)
"ZL" (2.850098048408562e+16 -2.919304288426920e+15)
"ZG" (4.000000000000000e+11 6.705963873647138e-06)
"YL" (3.600049981373970e+00 -2.867513449773971e-04)
"YG" (2.500000000000000e-12 -2.218702099335569e-32)
"freq" 7.943282347242817e+00
"loopGain" (-7.116229467275918e+04 7.720927748599857e+03)
"ZL" (2.846491925949960e+16 -3.088371404615380e+15)
"ZG" (4.000000000000001e+11 -6.697485853654338e-06)
"YL" (3.600049979129263e+00 -3.037424302358105e-04)
"YG" (2.500000000000000e-12 4.437404195904324e-32)
"freq" 8.413951416451953e+00
"loopGain" (-7.106141249042963e+04 8.166827500048586e+03)
"ZL" (2.842456638061653e+16 -3.266731322361930e+15)
"ZG" (4.000000000000001e+11 5.082879135659709e-04)
"YL" (3.600049976568047e+00 -3.217403005300173e-04)
"YG" (2.500000000000000e-12 4.437404192747381e-32)
"freq" 8.912509381337458e+00
"loopGain" (-7.094856078928392e+04 8.637004368563365e+03)
"ZL" (2.837942569351427e+16 -3.454802087784475e+15)
"ZG" (3.999999999999999e+11 6.677386254552054e-06)
"YL" (3.600049973719572e+00 -3.408046116714859e-04)
"YG" (2.500000000000000e-12 -4.437404189236365e-32)
"freq" 9.440608762859236e+00
"loopGain" (-7.082236504297718e+04 9.132506233387443e+03)
"ZL" (2.832894738757873e+16 -3.653002852600557e+15)
"ZG" (3.999999999999999e+11 -4.932483888591571e-04)
"YL" (3.600049970513738e+00 -3.609985542541834e-04)
"YG" (2.500000000000000e-12 -4.437404185284870e-32)
"freq" 1.000000000000000e+01
"loopGain" (-7.068130445787615e+04 9.654373820362258e+03)
"ZL" (2.827252314527328e+16 -3.861749907163022e+15)
"ZG" (4.000000000000001e+11 5.055712575093572e-04)
"YL" (3.600049966898249e+00 -3.823890630591729e-04)
"YG" (2.500000000000000e-12 4.437404180828436e-32)
"freq" 1.059253725177289e+01
"loopGain" (-7.052369932776704e+04 1.020362862146986e+04)
"ZL" (2.820948108402131e+16 -4.081451848276280e+15)
"ZG" (4.000000000000000e+11 0.000000000000000e+00)
"YL" (3.600049962861724e+00 -4.050470391747310e-04)
"YG" (2.500000000000000e-12 -4.437404175853035e-32)
"freq" 1.122018454301964e+01
"loopGain" (-7.034769810322265e+04 1.078125834867430e+04)
"ZL" (2.813908058395302e+16 -4.312503760730958e+15)
"ZG" (4.000000000000001e+11 5.031869518749858e-04)
"YL" (3.600049958338315e+00 -4.290475846924462e-04)
"YG" (2.500000000000000e-12 -8.874808340555005e-32)
"freq" 1.188502227437019e+01
"loopGain" (-7.015126434890322e+04 1.138819956187339e+04)
"ZL" (2.806050707082530e+16 -4.555280268483956e+15)
"ZG" (3.999999999999999e+11 -4.885782109470065e-04)
"YL" (3.600049953254299e+00 -4.544702518494244e-04)
"YG" (2.500000000000000e-12 -4.437404164010970e-32)
"freq" 1.258925411794168e+01
"loopGain" (-6.993216393218709e+04 1.202531711491018e+04)
"ZL" (2.797286689147404e+16 -4.810127313060695e+15)
"ZG" (4.000000000000001e+11 5.133807109565768e-04)
"YL" (3.600049947526826e+00 -4.813993066823965e-04)
"YG" (2.500000000000000e-12 0.000000000000000e+00)
"freq" 1.333521432163325e+01
"loopGain" (-6.968795282414327e+04 1.269338003614832e+04)
"ZL" (2.787518243420300e+16 -5.077352505784339e+15)
"ZG" (4.000000000000001e+11 1.311767660014062e-05)
"YL" (3.600049941180960e+00 -5.099240082495970e-04)
"YG" (2.500000000000000e-12 4.437404149129429e-32)
"freq" 1.412537544622755e+01
"loopGain" (-6.941596602088034e+04 1.339303346412604e+04)
"ZL" (2.776638769732386e+16 -5.357213902034579e+15)
"ZG" (3.999999999999999e+11 0.000000000000000e+00)
"YL" (3.600049933970925e+00 -5.401389043955128e-04)
"YG" (2.500000000000000e-12 -8.874808280484752e-32)
"freq" 1.496235656094434e+01
"loopGain" (-6.911330825653188e+04 1.412476629120537e+04)
"ZL" (2.764532457435086e+16 -5.649907058705686e+15)
"ZG" (3.999999999999999e+11 -4.943646898983386e-04)
"YL" (3.600049925897735e+00 -5.721441456609616e-04)
"YG" (2.500000000000000e-12 0.000000000000000e+00)
"freq" 1.584893192461114e+01
"loopGain" (-6.877684726232068e+04 1.488887418910033e+04)
"ZL" (2.751074015736518e+16 -5.955550244295844e+15)
"ZG" (3.999999999959999e+11 8.666392935182565e-01)
"YL" (3.600049916877302e+00 -6.060458164530860e-04)
"YG" (2.500000000000000e-12 -2.755309340776583e-32)
"freq" 1.678804018122561e+01
"loopGain" (-6.840321054658038e+04 1.568541778740139e+04)
"ZL" (2.736128545059378e+16 -6.274167711035389e+15)
"ZG" (4.000000000039786e+11 -9.120486473027022e-01)
"YL" (3.600049906738787e+00 -6.419562873130356e-04)
"YG" (2.500000000000000e-12 -6.482101989402641e-32)
"freq" 1.778279410038923e+01
"loopGain" (-6.798878683868762e+04 1.651417589590340e+04)
"ZL" (2.719551594407291e+16 -6.605670981999459e+15)
"ZG" (3.999999999999998e+11 -9.598572326101200e-04)
"YL" (3.600049895364195e+00 -6.799945870732775e-04)
"YG" (2.499999999999999e-12 8.874808185311814e-32)
"freq" 1.883649089489801e+01
"loopGain" (-6.752973348816107e+04 1.737459381859742e+04)
"ZL" (2.701189457849075e+16 -6.949838179141421e+15)
"ZG" (4.000000000000000e+11 -1.271175740340293e-05)
"YL" (3.600049882615322e+00 -7.202867974921987e-04)
"YG" (2.500000000000000e-12 8.874808153883413e-32)
"freq" 1.995262314968880e+01
"loopGain" (-6.702199133650953e+04 1.826572706568841e+04)
"ZL" (2.680879769004011e+16 -7.306291506254144e+15)
"ZG" (4.000000000000001e+11 1.261626095318878e-05)
"YL" (3.600049868260613e+00 -7.629664710871277e-04)
"YG" (2.499999999999999e-12 0.000000000000000e+00)
"freq" 2.113489039836647e+01
"loopGain" (-6.646130871245639e+04 1.918618107102716e+04)
"ZL" (2.658452461006389e+16 -7.674473136682825e+15)
"ZG" (4.000000000000004e+11 9.383105570277332e-04)
"YL" (3.600049852184659e+00 -8.081750739332194e-04)
"YG" (2.499999999999999e-12 8.874808078866039e-32)
"freq" 2.238721138568340e+01
"loopGain" (-6.584327632901711e+04 2.013404792163591e+04)
"ZL" (2.633731162363267e+16 -8.053619905008947e+15)
"ZG" (3.999999999999998e+11 -9.419871318032320e-04)
"YL" (3.600049834149159e+00 -8.560624543812945e-04)
"YG" (2.500000000000000e-12 -8.874808034405099e-32)
"freq" 2.371373705661656e+01
"loopGain" (-6.516337491621265e+04 2.110684159189455e+04)
"ZL" (2.606535102263639e+16 -8.442737400722436e+15)
"ZG" (3.999999999999999e+11 0.000000000000000e+00)
"YL" (3.600049813931161e+00 -9.067873398504980e-04)
"YG" (2.500000000000000e-12 -8.874807984563886e-32)
"freq" 2.511886431509581e+01
"loopGain" (-6.441703736522594e+04 2.210143373885699e+04)
"ZL" (2.576681596345272e+16 -8.840574286348620e+15)
"ZG" (4.000000000000001e+11 2.425263928038772e-05)
"YL" (3.600049791224579e+00 -9.605178630695984e-04)
"YG" (2.499999999999999e-12 0.000000000000000e+00)
"freq" 2.660725059798811e+01
"loopGain" (-6.359972698360855e+04 2.311399276672978e+04)
"ZL" (2.543989176903766e+16 -9.245597923239312e+15)
"ZG" (3.999999999999999e+11 -2.394519882362455e-05)
"YL" (3.600049765730345e+00 -1.017432118958644e-03)
"YG" (2.500000000000000e-12 -8.874807865739699e-32)
"freq" 2.818382931264455e+01
"loopGain" (-6.270703308546752e+04 2.413992956002719e+04)
"ZL" (2.508281416500832e+16 -9.655972664837046e+15)
"ZG" (4.000000000000004e+11 8.971572765012148e-04)
"YL" (3.600049737151423e+00 -1.077718755584709e-03)
"YG" (2.500000000000000e-12 0.000000000000000e+00)
"freq" 2.985382618917961e+01
"loopGain" (-6.173478453996281e+04 2.517385398034131e+04)
"ZL" (2.469391469905008e+16 -1.006954245538690e+16)
"ZG" (4.000000000000004e+11 8.600161537827443e-04)
"YL" (3.600049705069362e+00 -1.141577598698142e-03)
"YG" (2.500000000000000e-12 0.000000000000000e+00)
"freq" 3.162277660168380e+01
"loopGain" (-6.067918105292678e+04 2.620954687124858e+04)
"ZL" (2.427167325357339e+16 -1.048381963190458e+16)
"ZG" (4.000000000000001e+11 2.284660275654258e-05)
"YL" (3.600049669126878e+00 -1.209220314757245e-03)
"YG" (2.500000000000000e-12 0.000000000000000e+00)
"freq" 3.349654391578277e+01
"loopGain" (-5.953694080665673e+04 2.723995280758284e+04)
"ZL" (2.381477710163895e+16 -1.089598202389365e+16)
"ZG" (4.000000000000001e+11 -2.241693629555521e-05)
"YL" (3.600049628714199e+00 -1.280871111871447e-03)
"YG" (2.500000000000000e-12 -1.774961505593765e-31)
"freq" 3.548133892335755e+01
"loopGain" (-5.830546167380858e+04 2.825719908699002e+04)
"ZL" (2.332218539252224e+16 -1.130288054997807e+16)
"ZG" (4.000000000000001e+11 -2.195370162953894e-05)
"YL" (3.600049583362368e+00 -1.356767483567289e-03)
"YG" (2.500000000000000e-12 0.000000000000000e+00)
"freq" 3.758374042884443e+01
"loopGain" (-5.698299155827946e+04 2.925264634417435e+04)
"ZL" (2.279319728807222e+16 -1.170105946361347e+16)
"ZG" (3.999999999999991e+11 -1.652130455929431e-03)
"YL" (3.600049532616381e+00 -1.437160995648305e-03)
"YG" (2.500000000000001e-12 0.000000000000000e+00)
"freq" 3.981071705534974e+01
"loopGain" (-5.556880160127310e+04 3.021697555896651e+04)
"ZL" (2.222752124514111e+16 -1.208679115632919e+16)
"ZG" (3.999999999999999e+11 -2.092427630260241e-05)
"YL" (3.600049475554033e+00 -1.522318119714347e-03)
"YG" (2.500000000000000e-12 -1.774961430079972e-31)
"freq" 4.216965034285824e+01
"loopGain" (-5.406335418631233e+04 3.114031505313690e+04)
"ZL" (2.162534221770189e+16 -1.245612695666697e+16)
"ZG" (4.000000000031436e+11 -1.812613946558447e+00)
"YL" (3.600049411552904e+00 -1.612521117255400e-03)
"YG" (2.500000000000000e-12 1.921692565694960e-31)
"freq" 4.466835921509633e+01
"loopGain" (-5.246845602809844e+04 3.201240919775489e+04)
"ZL" (2.098738289182146e+16 -1.280496461216247e+16)
"ZG" (4.000000000000001e+11 0.000000000000000e+00)
"YL" (3.600049339782849e+00 -1.708068974252445e-03)
"YG" (2.500000000000000e-12 0.000000000000000e+00)
"freq" 4.731512589614807e+01
"loopGain" (-5.078738543189721e+04 3.282282804494959e+04)
"ZL" (2.031495459054134e+16 -1.312913214402669e+16)
"ZG" (4.000000000000001e+11 0.000000000000000e+00)
"YL" (3.600049259192304e+00 -1.809278392623064e-03)
"YG" (2.499999999999999e-12 -1.774961323405404e-31)
"freq" 5.011872336272725e+01
"loopGain" (-4.902498230461736e+04 3.356121403295811e+04)
"ZL" (1.960999327716083e+16 -1.342448652722309e+16)
"ZG" (4.000000000000000e+11 0.000000000000000e+00)
"YL" (3.600049168822833e+00 -1.916484840382477e-03)
"YG" (2.500000000000000e-12 1.774961278849815e-31)
"freq" 5.308844442309886e+01
"loopGain" (-4.718768991884253e+04 3.421755846162483e+04)
"ZL" (1.887507626139984e+16 -1.368702428166089e+16)
"ZG" (3.999999999999999e+11 0.000000000000000e+00)
"YL" (3.600049067414293e+00 -2.030043662413102e-03)
"YG" (2.500000000000000e-12 -1.774961228851544e-31)
"freq" 5.623413251903494e+01
"loopGain" (-4.528353899166088e+04 3.478249696051907e+04)
"ZL" (1.811341583079536e+16 -1.391299965925658e+16)
"ZG" (4.000000000000001e+11 -3.411071937140547e-05)
"YL" (3.600048953574130e+00 -2.150331259475469e-03)
"YG" (2.499999999999999e-12 1.774961172724011e-31)
"freq" 5.956621435290108e+01
"loopGain" (-4.332206738637452e+04 3.524761002919085e+04)
"ZL" (1.732882713136054e+16 -1.409904486004120e+16)
"ZG" (3.999999999999990e+11 -1.240132295648585e-03)
"YL" (3.600048825944002e+00 -2.277746334774260e-03)
"YG" (2.500000000000000e-12 -1.774961109797499e-31)
"freq" 6.309573444801936e+01
"loopGain" (-4.131417261155532e+04 3.560571242541960e+04)
"ZL" (1.652566916718115e+16 -1.424228578745877e+16)
"ZG" (4.000000000000001e+11 0.000000000000000e+00)
"YL" (3.600048682680041e+00 -2.412711216466255e-03)
"YG" (2.500000000000000e-12 -3.549922078325825e-31)
"freq" 6.683439175686149e+01
"loopGain" (-3.927189897955846e+04 3.585111403843402e+04)
"ZL" (1.570875966380896e+16 -1.434044639781039e+16)
"ZG" (4.000000000022828e+11 -2.086754861924006e+00)
"YL" (3.600048521943971e+00 -2.555673256152113e-03)
"YG" (2.500000000000000e-12 -2.580570519420527e-31)
"freq" 7.079457843841382e+01
"loopGain" (-3.720816639158331e+04 3.597983536622793e+04)
"ZL" (1.488326658218887e+16 -1.439193489034739e+16)
"ZG" (4.000000000000001e+11 0.000000000000000e+00)
"YL" (3.600048341542070e+00 -2.707106312434568e-03)
"YG" (2.500000000000000e-12 -3.549921741937815e-31)
"freq" 7.498942093324561e+01
"loopGain" (-3.513645263087488e+04 3.598976278321220e+04)
"ZL" (1.405458103606750e+16 -1.439590581595000e+16)
"ZG" (4.000000000000001e+11 0.000000000000000e+00)
"YL" (3.600048139196961e+00 -2.867512322243336e-03)
"YG" (2.500000000000000e-12 0.000000000000000e+00)
"freq" 7.943282347242818e+01
"loopGain" (-3.307044519734324e+04 3.588073252831405e+04)
"ZL" (1.322817802567828e+16 -1.435229367070478e+16)
"ZG" (4.000000000000001e+11 2.699386979020794e-05)
"YL" (3.600047912154915e+00 -3.037422962267523e-03)
"YG" (2.500000000000000e-12 3.549921318529390e-31)
"freq" 8.413951416451954e+01
"loopGain" (-3.102368152618730e+04 3.565453725073180e+04)
"ZL" (1.240947252525740e+16 -1.426181551499825e+16)
"ZG" (4.000000000000000e+11 0.000000000000000e+00)
"YL" (3.600047657425075e+00 -3.217401412676739e-03)
"YG" (2.500000000000000e-12 0.000000000000000e+00)
"freq" 8.912509381337459e+01
"loopGain" (-2.900919752738451e+04 3.531485464763483e+04)
"ZL" (1.160367889882410e+16 -1.412594242840519e+16)
"ZG" (4.000000000000000e+11 -2.656814620318952e-05)
"YL" (3.600047371541785e+00 -3.408044223421174e-03)
"YG" (2.500000000000000e-12 0.000000000000000e+00)
"freq" 9.440608762859237e+01
"loopGain" (-2.703920359847624e+04 3.486710341588046e+04)
"ZL" (1.081568130530111e+16 -1.394684189034887e+16)
"ZG" (4.000000000000020e+11 1.547646251963588e-03)
"YL" (3.600047050839541e+00 -3.609983292520211e-03)
"YG" (2.500000000000000e-12 -7.099840938413717e-31)
"freq" 1.000000000000000e+02
"loopGain" (-2.512480471640971e+04 3.431823685851417e+04)
"ZL" (1.004992173526297e+16 -1.372729522267745e+16)
"ZG" (3.999999999999999e+11 0.000000000000000e+00)
"YL" (3.600046690990495e+00 -3.823887956524995e-03)
"YG" (2.500000000000001e-12 -7.099840228736607e-31)
"freq" 1.059253725177289e+02
"loopGain" (-2.327577725212413e+04 3.367648843580662e+04)
"ZL" (9.310310736788538e+15 -1.347059581006019e+16)
"ZG" (3.999999999999999e+11 0.000000000000000e+00)
"YL" (3.600046287218020e+00 -4.050467213331198e-03)
"YG" (2.500000000000000e-12 0.000000000000000e+00)
"freq" 1.122018454301964e+02
"loopGain" (-2.150041032182343e+04 3.295108591374379e+04)
"ZL" (8.600163955988850e+15 -1.318043475936947e+16)
"ZG" (3.999999999999981e+11 -1.214701565232727e-03)
"YL" (3.600045834195320e+00 -4.290472069577443e-03)
"YG" (2.500000000000000e-12 0.000000000000000e+00)
"freq" 1.188502227437019e+02
"loopGain" (-1.980541437338459e+04 3.215195150808730e+04)
"ZL" (7.922165571592829e+15 -1.286078095729744e+16)
"ZG" (4.000000000000000e+11 0.000000000000000e+00)
"YL" (3.600045325887506e+00 -4.544698029430285e-03)
"YG" (2.500000000000000e-12 0.000000000000000e+00)
"freq" 1.258925411794168e+02
"loopGain" (-1.819589491635039e+04 3.128940452900956e+04)
"ZL" (7.278357786964727e+15 -1.251576212820722e+16)
"ZG" (4.000000000000001e+11 2.353970651818776e-05)
"YL" (3.600044755547962e+00 -4.813987731214672e-03)
"YG" (2.499999999999999e-12 7.099836411749234e-31)
"freq" 1.333521432163325e+02
"loopGain" (-1.667538527369346e+04 3.037388090352368e+04)
"ZL" (6.670153930830224e+15 -1.214955264310765e+16)
"ZG" (3.999999999999999e+11 4.570187387729350e-05)
"YL" (3.600044115632050e+00 -5.099233740778774e-03)
"YG" (2.500000000000000e-12 -7.099835149737620e-31)
"freq" 1.412537544622755e+02
"loopGain" (-1.524592929193126e+04 2.941568091146431e+04)
"ZL" (6.098371541376118e+15 -1.176627261399961e+16)
"ZG" (3.999999999991157e+11 1.712180685021972e+00)
"YL" (3.600043397626719e+00 -5.401381507689177e-03)
"YG" (2.500000000000000e-12 -1.645832190554141e-31)
"freq" 1.496235656094434e+02
"loopGain" (-1.390820319220686e+04 2.842475301902367e+04)
"ZL" (5.563281106512262e+15 -1.136990142756023e+16)
"ZG" (3.999999999999968e+11 -1.582457660473434e-03)
"YL" (3.600042592006496e+00 -5.721432499022428e-03)
"YG" (2.499999999999999e-12 7.099832144916035e-31)
"freq" 1.584893192461114e+02
"loopGain" (-1.266166513830576e+04 2.741051822436866e+04)
"ZL" (5.064665891492629e+15 -1.096420748283945e+16)
"ZG" (3.999999999992662e+11 1.595446585231570e+00)
"YL" (3.600041688149057e+00 -6.060447518653018e-03)
"YG" (2.500000000000000e-12 6.119488147979591e-31)
"freq" 1.678804018122561e+02
"loopGain" (-1.150472146852562e+04 2.638173617601815e+04)
"ZL" (4.601888431128634e+15 -1.055269463934479e+16)
"ZG" (4.000000000000001e+11 0.000000000000000e+00)
"YL" (3.600040673925335e+00 -6.419550220760798e-03)
"YG" (2.500000000000000e-12 7.099828362167933e-31)
"freq" 1.778279410038924e+02
"loopGain" (-1.043489964539556e+04 2.534641170915982e+04)
"ZL" (4.173959710210812e+15 -1.013856483091672e+16)
"ZG" (4.000000000000029e+11 1.201325295431196e-03)
"YL" (3.600039535975703e+00 -6.799930832972925e-03)
"YG" (2.500000000000000e-12 7.099826117957991e-31)
"freq" 1.883649089489801e+02
"loopGain" (-9.449019557649668e+03 2.431173847743699e+04)
"ZL" (3.779607683888648e+15 -9.724695518935802e+15)
"ZG" (4.000000000005496e+11 -1.414037266633426e+00)
"YL" (3.600038259160721e+00 -7.202850102410251e-03)
"YG" (2.500000000000000e-12 -1.731963706225843e-32)
"freq" 1.995262314968880e+02
"loopGain" (-8.543356609032289e+03 2.328407505970140e+04)
"ZL" (3.417342513538313e+15 -9.313630134676054e+15)
"ZG" (3.999999999995059e+11 1.355281408035189e+00)
"YL" (3.600036826574540e+00 -7.629643469962246e-03)
"YG" (2.500000000000000e-12 6.041503668054813e-32)
"freq" 2.113489039836648e+02
"loopGain" (-7.713791856554266e+03 2.226894822150597e+04)
"ZL" (3.085516621599480e+15 -8.907579384332957e+15)
"ZG" (3.999999999999999e+11 0.000000000000000e+00)
"YL" (3.600035219221810e+00 -8.081725494792006e-03)
"YG" (2.500000000000000e-12 -7.099817604662033e-31)
"freq" 2.238721138568341e+02
"loopGain" (-6.955946145836394e+03 2.127107783024150e+04)
"ZL" (2.782378346274988e+15 -8.508431214587485e+15)
"ZG" (4.000000000000001e+11 1.600268665995381e-05)
"YL" (3.600033415660949e+00 -8.560594539604246e-03)
"YG" (2.499999999999999e-12 7.099814047765398e-31)
"freq" 2.371373705661656e+02
"loopGain" (-6.265296656154851e+03 2.029441812033943e+04)
"ZL" (2.506118559125756e+15 -8.117767319057159e+15)
"ZG" (4.000000000000000e+11 0.000000000000000e+00)
"YL" (3.600031392057499e+00 -9.067837739077699e-03)
"YG" (2.500000000000000e-12 -1.419962011382255e-30)
"freq" 2.511886431509581e+02
"loopGain" (-5.637275457755521e+03 1.934221047029653e+04)
"ZL" (2.254910088138270e+15 -7.736884248980853e+15)
"ZG" (4.000000000003292e+11 -1.124587766137924e+00)
"YL" (3.600029121558663e+00 -9.605136249155837e-03)
"YG" (2.500000000000001e-12 -9.698709089638693e-31)
"freq" 2.660725059798811e+02
"loopGain" (-5.067350582282539e+03 1.841704348251570e+04)
"ZL" (2.026940145963844e+15 -7.366817445117676e+15)
"ZG" (4.000000000000000e+11 0.000000000000000e+00)
"YL" (3.600026574044579e+00 -1.017427081897891e-02)
"YG" (2.500000000000000e-12 1.419960111011238e-30)
"freq" 2.818382931264455e+02
"loopGain" (-4.551090749096559e+03 1.752091684840215e+04)
"ZL" (1.820436220242847e+15 -7.008366783914629e+15)
"ZG" (4.000000000000000e+11 0.000000000000000e+00)
"YL" (3.600023715637623e+00 -1.077712769001460e-02)
"YG" (2.500000000000000e-12 0.000000000000000e+00)
"freq" 2.985382618917961e+02