HEADER
"PSFversion" "1.00"
"simulator" "spectre"
"version" "25.1.0.235.isr5"
"date" "9:14:48 AM, Sun Jul 19, 2026"
"design" "// tb_fdota_stb_cmfb.scs (SKY130) -- fully-differential two-stage OTA with"
"analysis type" "margin.stb"
"analysis name" "stb"
"analysis description" "Stability Analysis `stb': freq = (1 mHz -> 10 GHz)"
"xVecSorted" "ascending"
"tolerance.relative" 1.000000000000000e-03
"operating point producer" "stb"
"probe" "I0.IPRB_CMFB"
TYPE
"dB" FLOAT DOUBLE PROP(
"key" "gain"
"units" "dB"
)
"Deg" FLOAT DOUBLE PROP(
"key" "gain"
"units" "Deg"
)
"Hz" FLOAT DOUBLE PROP(
"key" "gain"
"units" "Hz"
)
"stbstate" STRING *
VALUE
"gainMargin" "dB" 1.632793696277613e+01
"gainMarginFreq" "Hz" 7.441164978806562e+06
"phaseMargin" "Deg" 6.090640496271520e+01
"phaseMarginFreq" "Hz" 1.265465302462693e+06
"stb_state" "stbstate" "The circuit is stable. Gain and phase margin are both found."
END
