HEADER
"PSFversion" "1.00"
"simulator" "spectre"
"version" "25.1.0.235.isr5"
"date" "9:14:48 AM, Sun Jul 19, 2026"
"design" "// tb_fdota_stb_cmfb.scs (SKY130) -- fully-differential two-stage OTA with"
"analysis type" "stb"
"analysis name" "stb"
"analysis description" "Stability Analysis `stb': freq = (1 mHz -> 10 GHz)"
"xVecSorted" "ascending"
"tolerance.relative" 1.000000000000000e-03
"operating point producer" "stb"
"probe" "I0.IPRB_CMFB"
"marginFilename" "stb.margin.stb"
TYPE
"sweep" FLOAT DOUBLE PROP(
"key" "sweep"
)
"LOOPGAIN" COMPLEX DOUBLE PROP(
"key" "gain"
)
"IMPEDANCE" COMPLEX DOUBLE PROP(
"key" "advprobe"
)
"ADMITTANCE" COMPLEX DOUBLE PROP(
"key" "advprobe"
)
SWEEP
"freq" "sweep" PROP(
"sweep_direction" 0
"units" "Hz"
"plot" 0
"grid" 3
)
TRACE
"loopGain" "LOOPGAIN"
"ZL" "IMPEDANCE"
"ZG" "IMPEDANCE"
"YL" "ADMITTANCE"
"YG" "ADMITTANCE"
VALUE
"freq" 1.000000000000000e-03
"loopGain" (1.068792056639265e+02 5.789669693180622e-06)
"ZL" (-7.103060740010656e+13 4.419845841798558e+11)
"ZG" (6.645877179811290e+11 -4.135401591402383e+09)
"YL" (-1.349314492788455e-02 -7.394167188377799e-10)
"YG" (-5.130538145786434e-22 9.362510919472665e-15)
"freq" 1.122018454301963e-03
"loopGain" (1.068792056639265e+02 6.496116238360309e-06)
"ZL" (-7.102989533254934e+13 4.959097725658840e+11)
"ZG" (6.645810555648036e+11 -4.639949301558918e+09)
"YL" (-1.349314492788454e-02 -8.296392039573515e-10)
"YG" (-6.458966057781122e-22 1.050491199421273e-14)
"freq" 1.258925411794167e-03
"loopGain" (1.068792056639263e+02 7.288762303606014e-06)
"ZL" (-7.102899891045803e+13 5.564129472242783e+11)
"ZG" (6.645726682466127e+11 -5.206043535886344e+09)
"YL" (-1.349314492788452e-02 -9.308704972491546e-10)
"YG" (-8.131354174521107e-22 1.178670174265763e-14)
"freq" 1.412537544622754e-03
"loopGain" (1.068792056639262e+02 8.178125811737673e-06)
"ZL" (-7.102787041453245e+13 6.242956975740204e+11)
"ZG" (6.645621095438578e+11 -5.841184316521416e+09)
"YL" (-1.349314492788451e-02 -1.044453876481086e-09)
"YG" (-1.023677016179669e-21 1.322489915752408e-14)
"freq" 1.584893192461113e-03
"loopGain" (1.068792056431511e+02 9.176008080104927e-06)
"ZL" (-7.102644977353661e+13 7.004572915564381e+11)
"ZG" (6.645488174037145e+11 -6.553785588674535e+09)
"YL" (-1.349314492790904e-02 -1.171896524079617e-09)
"YG" (2.454388635559754e-14 1.483858151086877e-14)
"freq" 1.778279410038922e-03
"loopGain" (1.068792057319311e+02 1.029565041542559e-05)
"ZL" (-2.367746375747164e+13 8.733241970987785e+10)
"ZG" (2.215348028383651e+11 -8.171346624062060e+08)
"YL" (-1.349314492785983e-02 -1.314889526544654e-09)
"YG" (-2.454388926674875e-14 1.664915730690379e-14)
"freq" 1.995262314968878e-03
"loopGain" (1.068792056167003e+02 1.155190974683772e-05)
"ZL" (7.102241003579997e+13 8.817733931754448e+11)
"ZG" (-6.645110216317322e+11 -8.250114708544246e+09)
"YL" (-1.349314492788452e-02 -1.475330314158497e-09)
"YG" (-2.042504412125739e-21 1.868066873616577e-14)
"freq" 2.238721138568338e-03
"loopGain" (1.068792056639253e+02 1.296145592402675e-05)
"ZL" (-7.101957597990094e+13 9.893264798393208e+11)
"ZG" (6.644845031761184e+11 -9.256572390954908e+09)
"YL" (-1.349314492788439e-02 -1.655347838676965e-09)
"YG" (-2.571360716756762e-21 2.096005511987985e-14)
"freq" 2.511886431509578e-03
"loopGain" (1.068792056166996e+02 1.454299273427916e-05)
"ZL" (7.101600844167852e+13 1.109986423159600e+12)
"ZG" (-6.644511265541216e+11 -1.038533866732233e+10)
"YL" (-1.349314492788442e-02 -1.857330823285081e-09)
"YG" (-3.237151440042853e-21 2.351756931021503e-14)
"freq" 2.818382931264451e-03
"loopGain" (1.068792056431494e+02 1.631750623939286e-05)
"ZL" (-7.101151767095339e+13 1.245346787962071e+12)
"ZG" (6.644091061038276e+11 -1.165201066537454e+10)
"YL" (-1.349314492790882e-02 -2.083959459461924e-09)
"YG" (2.454388356899960e-14 2.638713897473946e-14)
"freq" 3.162277660168376e-03
"loopGain" (1.068792057111539e+02 1.830854313855430e-05)
"ZL" (-2.367676727766417e+13 1.552968820409445e+11)
"ZG" (2.215282861542418e+11 -1.453051062831917e+09)
"YL" (-1.349314492788435e-02 -2.338240971535686e-09)
"YG" (-5.130538152097321e-21 2.960685913443885e-14)
"freq" 3.548133892335751e-03
"loopGain" (1.068792057111507e+02 2.054252326879988e-05)
"ZL" (-2.367650355133129e+13 1.742440011594993e+11)
"ZG" (2.215258185720054e+11 -1.630331708856324e+09)
"YL" (-1.349314492788392e-02 -2.623549520672483e-09)
"YG" (-6.458965767480309e-21 3.321944700520041e-14)
"freq" 3.981071705534968e-03
"loopGain" (1.068792056431469e+02 2.304909018843870e-05)
"ZL" (-7.098979450594064e+13 1.758561155212766e+12)
"ZG" (6.642058546457916e+11 -1.645386934330577e+10)
"YL" (-1.349314492790850e-02 -2.943670977972713e-09)
"YG" (2.454387951297382e-14 3.727283557964930e-14)
"freq" 4.466835921509626e-03
"loopGain" (1.068792057111483e+02 2.586150456515203e-05)
"ZL" (-2.367575359168846e+13 2.193533093930658e+11)
"ZG" (2.215188014983736e+11 -2.052401536718098e+09)
"YL" (-1.349314492788371e-02 -3.302853160675636e-09)
"YG" (-1.023677100745558e-20 4.182080657141952e-14)
"freq" 5.011872336272717e-03
"loopGain" (1.068792057111467e+02 2.901708539340988e-05)
"ZL" (-2.367522743961971e+13 2.461129375389663e+11)
"ZG" (2.215138785030585e+11 -2.302780717609038e+09)
"YL" (-1.349314492788350e-02 -3.705862198109306e-09)
"YG" (-1.288732614890786e-20 4.692369848726070e-14)
"freq" 5.623413251903483e-03
"loopGain" (1.068792056846943e+02 3.255770529118336e-05)
"ZL" (-7.094649077083756e+13 2.482518718324350e+12)
"ZG" (6.638006859103497e+11 -2.322753377810845e+10)
"YL" (-1.349314492785877e-02 -4.158045775381407e-09)
"YG" (-2.454390386851383e-14 5.264925838743958e-14)
"freq" 6.309573444801923e-03
"loopGain" (1.068792056903646e+02 3.653034615008497e-05)
"ZL" (-2.367373128403584e+13 3.098182438256440e+11)
"ZG" (2.214998795712510e+11 -2.898845891564151e+09)
"YL" (-1.349314492790737e-02 -4.665404093831520e-09)
"YG" (2.454386721928633e-14 5.907346105502154e-14)
"freq" 7.079457843841368e-03
"loopGain" (1.068792057319162e+02 4.098772255257806e-05)
"ZL" (-2.367268167181829e+13 3.476064304670614e+11)
"ZG" (2.214900587678478e+11 -3.252414901052724e+09)
"YL" (-1.349314492785787e-02 -5.234669490037878e-09)
"YG" (-2.454391335793073e-14 6.628149665938213e-14)
"freq" 7.943282347242802e-03
"loopGain" (1.068792056166791e+02 4.598898105973993e-05)
"ZL" (7.086024627861856e+13 3.502386591615533e+12)
"ZG" (-6.629937728593702e+11 -3.276929351468171e+10)
"YL" (-1.349314492788181e-02 -5.873395769986878e-09)
"YG" (-3.237150198533561e-20 7.436905557648855e-14)
"freq" 8.912509381337440e-03
"loopGain" (1.068792056846791e+02 5.160048546873607e-05)
"ZL" (-7.081556073260500e+13 3.927265021087015e+12)
"ZG" (6.625756470563914e+11 -3.674521374591736e+10)
"YL" (-1.349314492785684e-02 -6.590058443353401e-09)
"YG" (-2.454392839764156e-14 8.344346195655930e-14)
"freq" 9.999999999999981e-03
"loopGain" (1.068792055958925e+02 5.789669685914358e-05)
"ZL" (7.075938533948634e+13 4.402965947144226e+12)
"ZG" (-6.620500901355604e+11 -4.119536198604794e+10)
"YL" (-1.349314492790519e-02 -7.394167188416879e-09)
"YG" (2.454383633892668e-14 9.362515044010536e-14)
"freq" 1.122018454301961e-02
"loopGain" (1.068792057111148e+02 6.496116242222484e-05)
"ZL" (-2.366496887684917e+13 5.507394672881770e+11)
"ZG" (2.214178932177068e+11 -5.153049808681253e+09)
"YL" (-1.349314492787936e-02 -8.296392039558531e-09)
"YG" (-6.458965340233243e-20 1.050491082386493e-13)
"freq" 1.258925411794165e-02
"loopGain" (1.068792056374238e+02 7.288762302157287e-05)
"ZL" (7.060011799468305e+13 5.530530417336466e+12)
"ZG" (-6.605599409950864e+11 -5.174516570249325e+10)
"YL" (-1.349314492785342e-02 -9.308704972481565e-09)
"YG" (-2.454396895786839e-14 1.178670121977353e-13)
"freq" 1.412537544622751e-02
"loopGain" (1.068792056166359e+02 8.178125809596202e-05)
"ZL" (7.048880082877773e+13 6.195575241590779e+12)
"ZG" (-6.595184269339098e+11 -5.796750823292145e+10)
"YL" (-1.349314492787631e-02 -1.044453876478662e-08)
"YG" (-1.023676881836657e-19 1.322489740200039e-13)
"freq" 1.584893192461110e-02
"loopGain" (1.068792056166195e+02 9.176008074835629e-05)
"ZL" (7.034915968277412e+13 6.937776769289123e+12)
"ZG" (-6.582119059144900e+11 -6.491175012956926e+10)
"YL" (-1.349314492787422e-02 -1.171896524082115e-08)
"YG" (-1.288733360821880e-19 1.483858493834998e-13)
"freq" 1.778279410038919e-02
"loopGain" (1.068792056165990e+02 1.029565040551953e-04)
"ZL" (7.017414590242569e+13 7.764949707827995e+12)
"ZG" (-6.565744287864258e+11 -7.265100794759393e+10)
"YL" (-1.349314492787152e-02 -1.314889526541923e-08)
"YG" (-1.622418178975907e-19 1.664915589501052e-13)
"freq" 1.995262314968875e-02
"loopGain" (1.068792056373480e+02 1.155190975693202e-04)
"ZL" (6.995505155445116e+13 8.685214485477618e+12)
"ZG" (-6.545245217278120e+11 -8.126125864979143e+10)
"YL" (-1.349314492784367e-02 -1.475330314147242e-08)
"YG" (-2.454409189466837e-14 1.868065932309034e-13)
"freq" 2.238721138568334e-02
"loopGain" (1.068792057317709e+02 1.296145593977830e-04)
"ZL" (-2.362684266029257e+13 1.097099649050652e+12)
"ZG" (2.210611613969527e+11 -1.026512438710778e+10)
"YL" (-1.349314492783936e-02 -1.655347838665535e-08)
"YG" (-2.454414478029265e-14 2.096004625710716e-13)
"freq" 2.511886431509574e-02
"loopGain" (1.068792055957219e+02 1.454299273301971e-04)
"ZL" (6.933939883850929e+13 1.083780762940137e+13)
"ZG" (-6.487643053656251e+11 -1.014015129321530e+11)
"YL" (-1.349314492788339e-02 -1.857330823279654e-08)
"YG" (2.454356392921249e-14 2.351756742204583e-13)
"freq" 2.818382931264447e-02
"loopGain" (1.068792056164476e+02 1.631750623699305e-04)
"ZL" (6.891387587998109e+13 1.208559844259022e+13)
"ZG" (-6.447829953758075e+11 -1.130761874244223e+11)
"YL" (-1.349314492785217e-02 -2.083959459454859e-08)
"YG" (-4.075330689000494e-19 2.638713693954016e-13)
"freq" 3.162277660168371e-02
"loopGain" (1.068792057316130e+02 1.830854315064131e-04)
"ZL" (-2.357635798302077e+13 1.546383169666852e+12)
"ZG" (2.205887963822652e+11 -1.446889131765446e+10)
"YL" (-1.349314492781909e-02 -2.338240971518427e-08)
"YG" (-2.454440069796980e-14 2.960684902944900e-13)
"freq" 3.548133892335745e-02
"loopGain" (1.068792057107536e+02 2.054252326672404e-04)
"ZL" (-2.355023727904302e+13 1.733147561174346e+12)
"ZG" (2.203443953603018e+11 -1.621637133163398e+10)
"YL" (-1.349314492783320e-02 -2.623549520665008e-08)
"YG" (-6.458966220160251e-19 3.321944934576306e-13)
"freq" 3.981071705534961e-02
"loopGain" (1.068792055954174e+02 2.304909017647750e-04)
"ZL" (6.692639919927980e+13 1.657902033516993e+13)
"ZG" (-6.261876161965905e+11 -1.551178801476300e+11)
"YL" (-1.349314492784445e-02 -2.943670977960403e-08)
"YG" (2.454307450861247e-14 3.727283733498800e-13)
"freq" 4.466835921509617e-02
"loopGain" (1.068792056160624e+02 2.586150454581381e-04)
"ZL" (6.593926372642979e+13 1.832759589875383e+13)
"ZG" (-6.169517048537450e+11 -1.714780346813647e+11)
"YL" (-1.349314492780287e-02 -3.302853160650924e-08)
"YG" (-1.023676986524810e-18 4.182080188979391e-13)
"freq" 5.011872336272707e-02
"loopGain" (1.068792056631241e+02 2.901708536558912e-04)
"ZL" (-6.473718111543280e+13 2.018902563404209e+13)
"ZG" (6.057036618294879e+11 -1.888973772486828e+11)
"YL" (-1.349314492778188e-02 -3.705862198098675e-08)
"YG" (-1.288733096711249e-18 4.692371604206378e-13)
"freq" 5.623413251903472e-02
"loopGain" (1.068792056156904e+02 3.255770526276726e-04)
"ZL" (6.328477304421904e+13 2.214424014226947e+13)
"ZG" (-5.921155589793046e+11 -2.071876093349630e+11)
"YL" (-1.349314492775527e-02 -4.158045775350312e-08)
"YG" (-1.622418591073689e-18 5.264926712062915e-13)
"freq" 6.309573444801911e-02
"loopGain" (1.068792056362037e+02 3.653034613396316e-04)
"ZL" (6.154642284927257e+13 2.416375061839520e+13)
"ZG" (-5.758510758106538e+11 -2.260827055263328e+11)
"YL" (-1.349314492769731e-02 -4.665404093772603e-08)
"YG" (-2.454593014862552e-14 5.907345812601567e-13)
"freq" 7.079457843841354e-02
"loopGain" (1.068792057095530e+02 4.098772254016071e-04)
"ZL" (-2.317803074224418e+13 3.403431030087614e+12)
"ZG" (2.168618070637936e+11 -3.184454839354182e+10)
"YL" (-1.349314492767966e-02 -5.234669489963500e-08)
"YG" (-2.571360227189685e-18 6.628150149869885e-13)
"freq" 7.943282347242786e-02
"loopGain" (1.068792056826868e+02 4.598898108260127e-04)
"ZL" (-5.708701107144538e+13 2.821622444351752e+13)
"ZG" (5.341253160980932e+11 -2.640033694470299e+11)
"YL" (-1.349314492760191e-02 -5.873395769881606e-08)
"YG" (-2.454712479482332e-14 7.436906244672820e-13)
"freq" 8.912509381337422e-02
"loopGain" (1.068792055669316e+02 5.160048539739641e-04)
"ZL" (2.289538698651163e+13 4.232413115059465e+12)
"ZG" (-2.142176049174864e+11 -3.959893230840012e+10)
"YL" (-1.349314492755963e-02 -6.590058443211546e-08)
"YG" (-4.075331908169246e-18 8.344347862303929e-13)
"freq" 9.999999999999962e-02
"loopGain" (1.068792056135033e+02 5.789669691624143e-04)
"ZL" (5.120669181075644e+13 3.186311111893888e+13)
"ZG" (-4.791097046339807e+11 -2.981200427869127e+11)
"YL" (-1.349314492747568e-02 -7.394167188137382e-08)
"YG" (-5.130537363528294e-18 9.362509485517854e-13)
"freq" 1.122018454301959e-01
"loopGain" (1.068792056599014e+02 6.496116239706667e-04)
"ZL" (-4.775537711529840e+13 3.334139880105849e+13)
"ZG" (4.468144566382545e+11 -3.119567482598600e+11)
"YL" (-1.349314492736969e-02 -8.296392039235351e-08)
"YG" (-6.458964908306654e-18 1.050491012126188e-12)
"freq" 1.258925411794162e-01
"loopGain" (1.068792056588570e+02 7.288762303379689e-04)
"ZL" (-4.402022417805270e+13 3.448368234699928e+13)
"ZG" (4.118667277941904e+11 -3.226444540379998e+11)
"YL" (-1.349314492723619e-02 -9.308704972037956e-08)
"YG" (-8.131354016061039e-18 1.178670150802254e-12)
"freq" 1.412537544622748e-01
"loopGain" (1.068792056310950e+02 8.178125807287742e-04)
"ZL" (4.007425692886155e+13 3.522304323356136e+13)
"ZG" (-3.749515779867724e+11 -3.295564929824579e+11)
"YL" (-1.349314492704405e-02 -1.044453876419581e-07)
"YG" (-2.455412441619345e-14 1.322490135310108e-12)
"freq" 1.584893192461107e-01
"loopGain" (1.068792057031226e+02 9.176008085917464e-04)
"ZL" (-2.136861040577598e+13 7.024520231823301e+12)
"ZG" (1.999317817571806e+11 -6.572563759538158e+10)
"YL" (-1.349314492685736e-02 -1.171896523988844e-07)
"YG" (-1.288732994817557e-17 1.483858072399418e-12)
"freq" 1.778279410038915e-01
"loopGain" (1.068792056538133e+02 1.029565040503707e-03)
"ZL" (-3.193373787740784e+13 3.533549542460554e+13)
"ZG" (2.987802617242875e+11 -3.306143907344836e+11)
"YL" (-1.349314492659123e-02 -1.314889526420816e-07)
"YG" (-1.622418635004722e-17 1.664916057480585e-12)
"freq" 1.995262314968871e-01
"loopGain" (1.068792056304188e+02 1.155190975011051e-03)
"ZL" (-2.795018162647746e+13 3.470133781667741e+13)
"ZG" (2.615083625478782e+11 -3.246809340591047e+11)
"YL" (-1.349314492628079e-02 -1.475330313976694e-07)
"YG" (2.452346260256700e-14 1.868066656056113e-12)
"freq" 2.238721138568329e-01
"loopGain" (1.068792056478980e+02 1.296145592340664e-03)
"ZL" (-2.415655140548064e+13 3.365088785464575e+13)
"ZG" (2.260134945939582e+11 -3.148524635646196e+11)
"YL" (-1.349314492583475e-02 -1.655347838421677e-07)
"YG" (-2.571360513153340e-17 2.096005347821474e-12)
"freq" 2.511886431509568e-01
"loopGain" (1.068792056409121e+02 1.454299274367718e-03)
"ZL" (5.848676704552126e+06 4.544654351930747e+13)
"ZG" (-5.848359640334995e+06 -4.252140839476119e+11)
"YL" (-1.349314492527952e-02 -1.857330822919595e-07)
"YG" (-2.457625914869067e-14 2.351756206516099e-12)
"freq" 2.818382931264440e-01
"loopGain" (1.068792056857481e+02 1.631750624198683e-03)
"ZL" (-1.764723280910929e+13 1.031613344280585e+13)
"ZG" (1.651123339939152e+11 -9.652395119882335e+10)
"YL" (-1.349314492463559e-02 -2.083959458960294e-07)
"YG" (-4.075331700205316e-17 2.638714348717496e-12)
"freq" 3.162277660168364e-01
"loopGain" (1.068792056999495e+02 1.830854313755645e-03)
"ZL" (-1.655545895322017e+13 1.085879517615096e+13)
"ZG" (1.548970409321947e+11 -1.016014208683895e+11)
"YL" (-1.349314492377003e-02 -2.338240970819570e-07)
"YG" (-2.459519302365999e-14 2.960685791517719e-12)
"freq" 3.548133892335737e-01
"loopGain" (1.068792056236623e+02 2.054252324977183e-03)
"ZL" (-1.209197658082382e+13 2.669678152873196e+13)
"ZG" (1.131320419014002e+11 -2.497867952224450e+11)
"YL" (-1.349314492273558e-02 -2.623549519665160e-07)
"YG" (-6.458966217731506e-17 3.321944933321312e-12)
"freq" 3.981071705534953e-01
"loopGain" (1.068792055924630e+02 2.304909017979775e-03)
"ZL" (-9.953477666417059e+12 2.465679578334020e+13)
"ZG" (9.312330827194765e+10 -2.306997940008412e+11)
"YL" (-1.349314492142709e-02 -2.943670976543464e-07)
"YG" (2.446257408274682e-14 3.727283263588618e-12)
"freq" 4.466835921509609e-01
"loopGain" (1.068792056473420e+02 2.586150455328607e-03)
"ZL" (-1.274107555086682e+13 1.180447019123259e+13)
"ZG" (1.192073748938535e+11 -1.104497252760960e+11)
"YL" (-1.349314491972421e-02 -3.302853158656249e-07)
"YG" (-1.023676985904954e-16 4.182080186475515e-12)
"freq" 5.011872336272697e-01
"loopGain" (1.068792055155864e+02 2.901708531449063e-03)
"ZL" (6.622701789617691e+12 2.065362411234639e+13)
"ZG" (-6.196961548628312e+10 -1.932409952415436e+11)
"YL" (-1.349314491763582e-02 -3.705862195293426e-07)
"YG" (2.441501430064205e-14 4.692372836518369e-12)
"freq" 5.623413251903461e-01
"loopGain" (1.068792054475563e+02 3.255770519727303e-03)
"ZL" (1.003107789459089e+13 1.170004747644386e+13)
"ZG" (-9.385768468372917e+10 -1.094669578409977e+11)
"YL" (-1.349314491497573e-02 -4.158045771386308e-07)
"YG" (2.438164573588638e-14 5.264928306048968e-12)
"freq" 6.309573444801898e-01
"loopGain" (1.068792055366008e+02 3.653034609500205e-03)
"ZL" (-4.327532120164462e+12 1.699034998544926e+13)
"ZG" (4.048449461552852e+10 -1.589691651796057e+11)
"YL" (-1.349314491160243e-02 -4.665404088155343e-07)
"YG" (-2.042504458988905e-16 5.907346279655823e-12)
"freq" 7.079457843841340e-01
"loopGain" (1.068792054564078e+02 4.098772244952644e-03)
"ZL" (3.481107744147902e+12 1.533480567578378e+13)
"ZG" (-3.257599639515507e+10 -1.434766651379331e+11)
"YL" (-1.349314490738663e-02 -5.234669482013114e-07)
"YG" (-2.571359860062276e-16 6.628149203626589e-12)
"freq" 7.943282347242770e-01
"loopGain" (1.068792054356782e+02 4.598898098067362e-03)
"ZL" (2.793298493434043e+12 1.380631939578295e+13)
"ZG" (-2.614066362237947e+10 -1.291757265544969e+11)
"YL" (-1.349314490205468e-02 -5.873395758657334e-07)
"YG" (-2.486760266039669e-14 7.436905481572328e-12)
"freq" 8.912509381337405e-01
"loopGain" (1.068792053834289e+02 5.160048534054947e-03)
"ZL" (2.236888673898921e+12 1.240522631149206e+13)
"ZG" (-2.093474011483318e+10 -1.160667137945991e+11)
"YL" (-1.349314489537319e-02 -6.590058427327291e-07)
"YG" (-2.495142063789343e-14 8.344343834880325e-12)
"freq" 9.999999999999942e-01
"loopGain" (1.068792052496430e+02 5.789669670138655e-03)
"ZL" (4.465742158011047e+12 9.262608769021357e+12)
"ZG" (-4.178777867181388e+10 -8.666200762661702e+10)
"YL" (-1.349314488698552e-02 -7.394167165773026e-07)
"YG" (-5.130538271515274e-16 9.362511142718248e-12)
"freq" 1.122018454301957e+00
"loopGain" (1.068792052348362e+02 6.496116213652773e-03)
"ZL" (1.427979136168901e+12 9.969685107966691e+12)
"ZG" (-1.336635970599435e+10 -9.327911954259879e+10)
"YL" (-1.349314487637150e-02 -8.296392007617947e-07)
"YG" (-2.518978410812463e-14 1.050490969602172e-11)
"freq" 1.258925411794160e+00
"loopGain" (1.068792051570356e+02 7.288762264616047e-03)
"ZL" (-1.138982357916441e+12 8.922380239589854e+12)
"ZG" (1.065102477812307e+10 -8.348170222311681e+10)
"YL" (-1.349314486306444e-02 -9.308704927429824e-07)
"YG" (-8.131357206616543e-16 1.178670613334216e-11)
"freq" 1.412537544622746e+00
"loopGain" (1.068792050257827e+02 8.178125762896286e-03)
"ZL" (-9.077185893309972e+11 7.978393089238336e+12)
"ZG" (8.487219542727211e+09 -7.464934448198425e+10)
"YL" (-1.349314484628032e-02 -1.044453870108421e-06)
"YG" (-1.023676922684717e-15 1.322489793060631e-11)
"freq" 1.584893192461104e+00
"loopGain" (1.068792048605545e+02 9.176008014768406e-03)
"ZL" (-7.229250510733151e+11 7.129486958026442e+12)
"ZG" (6.758210163152248e+09 -6.670660645121265e+10)
"YL" (-1.349314482515122e-02 -1.171896515075867e-06)
"YG" (-1.288732724810096e-15 1.483857761606806e-11)
"freq" 1.778279410038912e+00
"loopGain" (1.068792046468660e+02 1.029565030834157e-02)
"ZL" (5.754547577920848e+11 6.367489563810294e+12)
"ZG" (-5.389906833694550e+09 -5.957598598273537e+10)
"YL" (-1.349314479850176e-02 -1.314889513832582e-06)
"YG" (-5.071019365659909e-14 1.664915788039948e-11)
"freq" 1.995262314968867e+00
"loopGain" (1.068792043226634e+02 1.155190960613637e-02)
"ZL" (4.578639701447280e+11 5.684501996473348e+12)
"ZG" (-4.289695039348826e+09 -5.318576620747289e+10)
"YL" (-1.349314476508787e-02 -1.475330296199063e-06)
"YG" (2.250138349260807e-14 1.868066633739942e-11)
"freq" 2.238721138568325e+00
"loopGain" (1.068792041082149e+02 1.296145573717181e-02)
"ZL" (-1.049468493349400e+12 4.873175401763039e+12)
"ZG" (9.813665002513683e+09 -4.559636101456874e+10)
"YL" (-1.349314472290467e-02 -1.655347813305143e-06)
"YG" (-2.571359876866597e-15 2.096004829436009e-11)
"freq" 2.511886431509564e+00
"loopGain" (1.068792036194936e+02 1.454299246845998e-02)
"ZL" (2.895836943798835e+11 4.526127445466583e+12)
"ZG" (-2.715218435343024e+09 -4.234769489145705e+10)
"YL" (-1.349314466980552e-02 -1.857330787442389e-06)
"YG" (-2.778103719370202e-14 2.351755562773417e-11)
"freq" 2.818382931264435e+00
"loopGain" (1.068792030762136e+02 1.631750583753259e-02)
"ZL" (2.302186162354839e+11 4.037299417165673e+12)
"ZG" (-2.159782413545793e+09 -3.777408523563908e+10)
"YL" (-1.349314460301349e-02 -2.083959408854584e-06)
"YG" (-4.075331370859639e-15 2.638714136017991e-11)
"freq" 3.162277660168358e+00
"loopGain" (1.068792024391891e+02 1.830854257168035e-02)
"ZL" (1.829923695790250e+11 3.600647420026440e+12)
"ZG" (-1.717920644386184e+09 -3.368864889673513e+10)
"YL" (-1.349314451887117e-02 -2.338240900041519e-06)
"YG" (-2.967442477301872e-14 2.960685328165336e-11)
"freq" 3.548133892335731e+00
"loopGain" (1.068792015222940e+02 2.054252244660405e-02)
"ZL" (4.292605348164792e+11 3.159040748164212e+12)
"ZG" (-4.022003400891356e+09 -2.955633993966352e+10)
"YL" (-1.349314441302299e-02 -2.623549419694271e-06)
"YG" (1.808492160996537e-14 3.321944835630977e-11)
"freq" 3.981071705534945e+00
"loopGain" (1.068792006157646e+02 2.304908908265325e-02)
"ZL" (-1.155607805083113e+11 2.862818668901924e+12)
"ZG" (1.075443701319115e+09 -2.678578690016019e+10)
"YL" (-1.349314427965664e-02 -2.943670835333817e-06)
"YG" (-3.267524415919538e-14 3.727283438575028e-11)
"freq" 4.466835921509600e+00
"loopGain" (1.068791991465027e+02 2.586150293143431e-02)
"ZL" (2.726713745011788e+11 2.526216113593808e+12)
"ZG" (-2.556937634446042e+09 -2.363556160991998e+10)
"YL" (-1.349314411189397e-02 -3.302852959210697e-06)
"YG" (3.885100032899869e-14 4.182082261169283e-11)
"freq" 5.011872336272687e+00
"loopGain" (1.068791975621965e+02 2.901708312164363e-02)
"ZL" (7.296724178950351e+10 2.275383250882992e+12)
"ZG" (-6.884952484380053e+08 -2.128911235606958e+10)
"YL" (-1.349314390057641e-02 -3.705861913527318e-06)
"YG" (1.165655672386964e-14 4.692371584006531e-11)
"freq" 5.623413251903450e+00
"loopGain" (1.068791955500637e+02 3.255770212057607e-02)
"ZL" (-5.796167736836580e+10 2.028365872647469e+12)
"ZG" (5.365212354182292e+08 -1.897828061424303e+10)
"YL" (-1.349314363454918e-02 -4.158045373398172e-06)
"YG" (-1.622419063199765e-14 5.264928248548989e-11)
"freq" 6.309573444801886e+00
"loopGain" (1.068791928841006e+02 3.653034169713300e-02)
"ZL" (4.605883705319669e+10 1.808086625709654e+12)
"ZG" (-4.367328033989251e+08 -1.691695644082014e+10)
"YL" (-1.349314329967170e-02 -4.665403525965320e-06)
"YG" (-2.042503850297722e-14 5.907344525327852e-11)
"freq" 7.079457843841326e+00
"loopGain" (1.068791896137595e+02 4.098771623352651e-02)
"ZL" (-3.658021496498814e+10 1.611673855602808e+12)
"ZG" (3.364668961247401e+08 -1.507952737714013e+10)
"YL" (-1.349314287811079e-02 -5.234668687942497e-06)
"YG" (-1.169718339101216e-15 6.628151106419512e-11)
"freq" 7.943282347242755e+00
"loopGain" (1.068791853953362e+02 4.598897217838248e-02)
"ZL" (2.907026457895847e+10 1.436557739463568e+12)
"ZG" (-2.777830397168487e+08 -1.344082986669415e+10)
"YL" (-1.349314234739046e-02 -5.873394636980376e-06)
"YG" (1.671627165120287e-14 7.436905930332632e-11)
"freq" 8.912509381337388e+00
"loopGain" (1.068791801702723e+02 5.160047289391159e-02)
"ZL" (2.309447470262915e+10 1.280441099784151e+12)
"ZG" (-2.218719034959685e+08 -1.198015959419624e+10)
"YL" (-1.349314167922235e-02 -6.590056842940859e-06)
"YG" (8.334460686446574e-15 8.344346940115623e-11)
"freq" 9.999999999999924e+00
"loopGain" (1.068791735686915e+02 5.789667918673586e-02)
"ZL" (3.665980530425412e+10 1.140387249107713e+12)
"ZG" (-3.487898838566181e+08 -1.066968418715263e+10)
"YL" (-1.349314083804845e-02 -7.394164927727566e-06)
"YG" (-2.217609238754600e-15 9.362511472635996e-11)
"freq" 1.122018454301955e+01
"loopGain" (1.068791652903644e+02 6.496113734921868e-02)
"ZL" (1.457553718742281e+10 1.017212629445454e+12)
"ZG" (-1.421663785029534e+08 -9.517321539576555e+09)
"YL" (-1.349313977909856e-02 -8.296388846308166e-06)
"YG" (9.042005545427417e-15 1.050491146431360e-10)
"freq" 1.258925411794157e+01
"loopGain" (1.068791548649965e+02 7.288758768720217e-02)
"ZL" (1.157945005791043e+10 9.066298859391776e+11)
"ZG" (-1.141341617384929e+08 -8.482678941083662e+09)
"YL" (-1.349313844592861e-02 -9.308700461891941e-06)
"YG" (-7.681878627435406e-15 1.178670171253057e-10)
"freq" 1.412537544622743e+01
"loopGain" (1.068791416930093e+02 8.178120820465874e-02)
"ZL" (2.755796002475870e+10 8.072259367628556e+11)
"ZG" (-2.636290085566703e+08 -7.552496543181925e+09)
"YL" (-1.349313676756753e-02 -1.044453239338067e-05)
"YG" (-2.873600740489549e-14 1.322489511278772e-10)
"freq" 1.584893192461101e+01
"loopGain" (1.068791251963684e+02 9.176001036037777e-02)
"ZL" (7.308735267396312e+09 7.202049570422068e+11)
"ZG" (-7.417617747471415e+07 -6.738435975119807e+09)
"YL" (-1.349313465466082e-02 -1.171895624092806e-05)
"YG" (-3.069771948531279e-14 1.483857735490392e-10)
"freq" 1.778279410038909e+01
"loopGain" (1.068791044271687e+02 1.029564045355337e-01)
"ZL" (-1.738583234544347e+10 6.414780825896748e+11)
"ZG" (1.568786736764622e+08 -6.002054943856704e+09)
"YL" (-1.349313199471320e-02 -1.314888255290784e-05)
"YG" (9.565331958707074e-15 1.664916240896903e-10)
"freq" 1.995262314968863e+01
"loopGain" (1.068790781274645e+02 1.155189568445441e-01)
"ZL" (5.848675941508528e+06 5.721380115846293e+11)
"ZG" (-5.848358891876918e+06 -5.353127533636277e+09)
"YL" (-1.349312864599525e-02 -1.475328518460037e-05)
"YG" (1.664452384936520e-14 1.868067088275294e-10)
"freq" 2.238721138568321e+01
"loopGain" (1.068790451624495e+02 1.296143607173230e-01)
"ZL" (-3.654453259376789e+09 5.098923023836635e+11)
"ZG" (2.839903171106293e+07 -4.770776054682054e+09)
"YL" (-1.349312443017392e-02 -1.655345302172612e-05)
"YG" (-1.169706461489648e-14 2.096004448526519e-10)
"freq" 2.511886431509559e+01
"loopGain" (1.068790036433113e+02 1.454296469801112e-01)
"ZL" (-8.713833992819534e+09 4.542981370323851e+11)
"ZG" (7.573823977140127e+07 -4.250686780057872e+09)
"YL" (-1.349311912281604e-02 -1.857327240385967e-05)
"YG" (-4.644495722462506e-15 2.351756139507149e-10)
"freq" 2.818382931264430e+01
"loopGain" (1.068789512741840e+02 1.631746662674003e-01)
"ZL" (4.624473257374553e+09 4.049899346421656e+11)
"ZG" (-4.906110647394842e+07 -3.789164419875280e+09)
"YL" (-1.349311245177157e-02 -2.083954401734307e-05)
"YG" (9.713020348995393e-15 2.638713693409364e-10)
"freq" 3.162277660168353e+01
"loopGain" (1.068788854381977e+02 1.830848716681630e-01)
"ZL" (5.848675754198032e+06 3.609946685654410e+11)
"ZG" (-5.848358704595825e+06 -3.377595080938456e+09)
"YL" (-1.349310404019921e-02 -2.338233826376426e-05)
"YG" (2.691162564311377e-14 2.960686408316320e-10)
"freq" 3.548133892335724e+01
"loopGain" (1.068788025023845e+02 2.054244420080066e-01)
"ZL" (5.848674518102763e+06 3.217367688960909e+11)
"ZG" (-5.848357468629822e+06 -3.010284170746393e+09)
"YL" (-1.349309345066483e-02 -2.623539426818811e-05)
"YG" (4.133213603053436e-14 3.321945413383383e-10)
"freq" 3.981071705534938e+01
"loopGain" (1.068786981720777e+02 2.304897853184597e-01)
"ZL" (-2.309098006910466e+09 2.867296154884457e+11)
"ZG" (1.581148744437751e+07 -2.682791534011521e+09)
"YL" (-1.349308011921689e-02 -2.943656718848669e-05)
"YG" (2.135640643253222e-14 3.727283976252095e-10)
"freq" 4.466835921509592e+01
"loopGain" (1.068785667387885e+02 2.586134681733173e-01)
"ZL" (-1.833004355908089e+09 2.555515250838980e+11)
"ZG" (1.135690626308690e+07 -2.391073120781886e+09)
"YL" (-1.349306333599132e-02 -3.302833017820944e-05)
"YG" (3.170997376818618e-14 4.182081018230992e-10)
"freq" 5.011872336272678e+01
"loopGain" (1.068784014054404e+02 2.901686261739098e-01)
"ZL" (-1.454819278332235e+09 2.277629241634120e+11)
"ZG" (7.818410932810032e+06 -2.131068534231205e+09)
"YL" (-1.349304221767564e-02 -3.705833749884133e-05)
"YG" (-1.245056985215227e-14 4.692370241287162e-10)
"freq" 5.623413251903440e+01
"loopGain" (1.068781930129213e+02 3.255739053658437e-01)
"ZL" (5.859925906729715e+08 2.030005670326619e+11)
"ZG" (-1.127634608728543e+07 -1.899329390942289e+09)
"YL" (-1.349301561824440e-02 -4.158005587960689e-05)
"YG" (2.202095212457950e-14 5.264929690463482e-10)
"freq" 6.309573444801875e+01
"loopGain" (1.068779308534809e+02 3.652990161863804e-01)
"ZL" (4.666740705832757e+08 1.809247358499830e+11)
"ZG" (-1.015996871443991e+07 -1.692781855894232e+09)
"YL" (-1.349298214218361e-02 -4.665347331179425e-05)
"YG" (4.372590846976744e-14 5.907346461456891e-10)
"freq" 7.079457843841314e+01
"loopGain" (1.068776008765319e+02 4.098709467063346e-01)
"ZL" (-3.601984707012818e+08 1.612495769002714e+11)
"ZG" (-2.423460581693030e+06 -1.508721978103757e+09)
"YL" (-1.349293999579559e-02 -5.234589312727925e-05)
"YG" (3.029190013146622e-14 6.628149983903010e-10)
"freq" 7.943282347242742e+01
"loopGain" (1.068771853325380e+02 4.598809415414146e-01)
"ZL" (-5.756679373312472e+08 1.437122264634885e+11)
"ZG" (-4.073854441724455e+05 -1.344646586770064e+09)
"YL" (-1.349288692377079e-02 -5.873282507527909e-05)