HEADER
"PSFversion" "1.00"
"simulator" "spectre"
"version" "25.1.0.235.isr5"
"date" "5:24:46 PM, Wed Jul 22, 2026"
"design" "// tb_nmc3.scs -- behavioral gm-C THREE-STAGE nested-Miller (NMC) amplifier."
"analysis type" "stb"
"analysis name" "stb"
"analysis description" "Stability Analysis `stb': freq = (1 Hz -> 10 GHz)"
"xVecSorted" "ascending"
"tolerance.relative" 1.000000000000000e-03
"operating point producer" "stb"
"probe" "IPRB2"
"marginFilename" "stb.margin.stb"
TYPE
"sweep" FLOAT DOUBLE PROP(
"key" "sweep"
)
"LOOPGAIN" COMPLEX DOUBLE PROP(
"key" "gain"
)
"IMPEDANCE" COMPLEX DOUBLE PROP(
"key" "advprobe"
)
"ADMITTANCE" COMPLEX DOUBLE PROP(
"key" "advprobe"
)
SWEEP
"freq" "sweep" PROP(
"sweep_direction" 0
"units" "Hz"
"plot" 0
"grid" 3
)
TRACE
"loopGain" "LOOPGAIN"
"ZL" "IMPEDANCE"
"ZG" "IMPEDANCE"
"YL" "ADMITTANCE"
"YG" "ADMITTANCE"
VALUE
"freq" 1.000000000000000e+00
"loopGain" (-1.262223190850215e-15 -3.767712130535130e-07)
"ZL" (1.561289806006447e+04 -2.652582384909019e+10)
"ZG" (-1.147963837276417e-10 4.240739575355914e-04)
"YL" (5.389552580021200e-12 6.789610000168997e-08)
"YG" (1.800049988655051e-01 -1.429629291724566e-05)
"freq" 1.059253725177289e+00
"loopGain" (-1.593450841138171e-15 -3.990963109665049e-07)
"ZL" (3.816587315518477e+03 -2.504199250624657e+10)
"ZG" (1.434707234227517e-10 4.503955859394184e-04)
"YL" (6.047180308457685e-12 7.191919679711336e-08)
"YG" (1.800049987285593e-01 -1.514340151747309e-05)
"freq" 1.122018454301963e+00
"loopGain" (-2.031604038010762e-15 -4.227442540957804e-07)
"ZL" (1.919786163606625e+04 -2.364116539069077e+10)
"ZG" (-2.213201073224482e-10 4.698206940084420e-04)
"YL" (6.785091511623540e-12 7.618067705285694e-08)
"YG" (1.800049985719594e-01 -1.604070445515267e-05)
"freq" 1.188502227437018e+00
"loopGain" (-2.429816579045825e-15 -4.477934259482541e-07)
"ZL" (6.211152540121240e+03 -2.231869931403764e+10)
"ZG" (8.756300766507144e-11 5.005304239342836e-04)
"YL" (7.612995954713347e-12 8.069466587698807e-08)
"YG" (1.800049983983676e-01 -1.699117593228199e-05)
"freq" 1.258925411794167e+00
"loopGain" (-2.387710500171746e-15 -4.743268545455892e-07)
"ZL" (2.874090419391561e+03 -2.107021083159736e+10)
"ZG" (1.410938647246746e-10 5.356913002558734e-04)
"YL" (8.541892972649675e-12 8.547612533969888e-08)
"YG" (1.800049982035945e-01 -1.799796638201447e-05)
"freq" 1.333521432163324e+00
"loopGain" (-2.579824131357446e-15 -5.024324876290412e-07)
"ZL" (1.707855197531702e+04 -1.989156170261415e+10)
"ZG" (-2.139251754643889e-10 5.631437798490679e-04)
"YL" (9.584176660240121e-12 9.054090406850797e-08)
"YG" (1.800049979822264e-01 -1.906441291215602e-05)
"freq" 1.412537544622754e+00
"loopGain" (-2.974947184531120e-15 -5.322034841711552e-07)
"ZL" (1.067137918329643e+04 -1.877884517104243e+10)
"ZG" (-1.161535272231726e-10 5.962729997443080e-04)
"YL" (1.075359889849596e-11 9.590578978541634e-08)
"YG" (1.800049977379646e-01 -2.019405036833317e-05)
"freq" 1.496235656094433e+00
"loopGain" (-3.275376226368797e-15 -5.637385231606323e-07)
"ZL" (1.140916736860336e+04 -1.772837302790858e+10)
"ZG" (-7.750501834092000e-11 6.337748231764224e-04)
"YL" (1.206575186503908e-11 1.015885649394862e-07)
"YG" (1.800049974600111e-01 -2.139062304587527e-05)
"freq" 1.584893192461113e+00
"loopGain" (-4.021714160744977e-15 -5.971421306838409e-07)
"ZL" (1.426485511480763e+04 -1.673666337622519e+10)
"ZG" (-1.716119110564910e-10 6.670733023814326e-04)
"YL" (1.353803326402220e-11 1.076080656603018e-07)
"YG" (1.800049971466013e-01 -2.265809710534266e-05)
"freq" 1.678804018122560e+00
"loopGain" (-4.366338865022833e-15 -6.325250263871676e-07)
"ZL" (6.236528451455624e+03 -1.580042909205825e+10)
"ZG" (1.210852720479562e-10 7.104510071670158e-04)
"YL" (1.518987638761990e-11 1.139842441911896e-07)
"YG" (1.800049968011833e-01 -2.400067371849934e-05)
"freq" 1.778279410038923e+00
"loopGain" (-4.731110614122695e-15 -6.700044904684775e-07)
"ZL" (6.795615723053238e+03 -1.491656693436515e+10)
"ZG" (1.368421292123332e-10 7.535125806798795e-04)
"YL" (1.704330801444324e-11 1.207382350098738e-07)
"YG" (1.800049964116167e-01 -2.542280298827112e-05)
"freq" 1.883649089489801e+00
"loopGain" (-5.356421191524219e-15 -7.097047524142500e-07)
"ZL" (8.177435874079919e+03 -1.408214725138862e+10)
"ZG" (6.181605389934795e-11 7.973505298475883e-04)
"YL" (1.912291828952286e-11 1.278924248945569e-07)
"YG" (1.800049959736879e-01 -2.692919870426499e-05)
"freq" 1.995262314968880e+00
"loopGain" (-6.070553549240505e-15 -7.517574027708222e-07)
"ZL" (9.250223336919891e+03 -1.329440427426939e+10)
"ZG" (-4.691519451000055e-11 8.442579130113475e-04)
"YL" (2.145628561673956e-11 1.354705271220843e-07)
"YG" (1.800049954825539e-01 -2.852485396577624e-05)
"freq" 2.113489039836647e+00
"loopGain" (-6.835148746737435e-15 -7.963018293146015e-07)
"ZL" (9.605651196786321e+03 -1.255072694891375e+10)
"ZG" (-8.932575865176821e-11 8.945696074132046e-04)
"YL" (2.407436126514910e-11 1.434976600661612e-07)
"YG" (1.800049949307795e-01 -3.021505773072702e-05)
"freq" 2.238721138568339e+00
"loopGain" (-7.623362259130905e-15 -8.434856790669926e-07)
"ZL" (1.212577930921617e+04 -1.184865028185325e+10)
"ZG" (-2.453356991024601e-10 9.458189290277273e-04)
"YL" (2.701187848318156e-11 1.520004304570889e-07)
"YG" (1.800049943120237e-01 -3.200541234773174e-05)
"freq" 2.371373705661655e+00
"loopGain" (-8.740789086060308e-15 -8.934653476854177e-07)
"ZL" (8.774344139285789e+03 -1.118584716731011e+10)
"ZG" (1.224677147494784e-10 1.003437834067554e-03)
"YL" (3.030783151408899e-11 1.610070215673459e-07)
"YG" (1.800049936152844e-01 -3.390185212353080e-05)
"freq" 2.511886431509580e+00
"loopGain" (-9.701617404999847e-15 -9.464064978526107e-07)
"ZL" (8.518967155754595e+03 -1.056012067869306e+10)
"ZG" (7.242017868597649e-11 1.063374883212332e-03)
"YL" (3.400593068966464e-11 1.705472866397433e-07)
"YG" (1.800049928389354e-01 -3.591066299787059e-05)
"freq" 2.660725059798810e+00
"loopGain" (-1.087867748947418e-14 -1.002484608382387e-06)
"ZL" (1.116323693361976e+04 -9.969396782134586e+09)
"ZG" (-2.108513709011880e-10 1.123427765689747e-03)
"YL" (3.815528023288308e-11 1.806528478164990e-07)
"YG" (1.800049919660868e-01 -3.803850336994284e-05)
"freq" 2.818382931264454e+00
"loopGain" (-1.204300103076587e-14 -1.061885555861963e-06)
"ZL" (9.604321494792908e+03 -9.411717461862926e+09)
"ZG" (-5.958804451390971e-12 1.193287839813233e-03)
"YL" (4.281092674238165e-11 1.913572009733124e-07)
"YG" (1.800049909870796e-01 -4.029242617594555e-05)
"freq" 2.985382618917960e+00
"loopGain" (-1.378786761610608e-14 -1.124806230758759e-06)
"ZL" (1.096078643351751e+04 -8.885234234712982e+09)
"ZG" (-2.017082450259458e-10 1.261681269039288e-03)
"YL" (4.803468662888666e-11 2.026958267324568e-07)
"YG" (1.800049898870746e-01 -4.267990226265308e-05)
"freq" 3.162277660168379e+00
"loopGain" (-1.517574486657421e-14 -1.191455190033849e-06)
"ZL" (8.582133451679982e+03 -8.388202017061309e+09)
"ZG" (1.370929652534763e-10 1.338245769591969e-03)
"YL" (5.389572258804618e-11 2.147063080690703e-07)
"YG" (1.800049886496521e-01 -4.520884515043265e-05)
"freq" 3.349654391578276e+00
"loopGain" (-1.693370913539360e-14 -1.262053348425192e-06)
"ZL" (1.008276292125915e+04 -7.918973347045544e+09)
"ZG" (-2.214912885041273e-10 1.417242438456566e-03)
"YL" (6.047201906572338e-11 2.274284548952107e-07)
"YG" (1.800049872669919e-01 -4.788763726955855e-05)
"freq" 3.548133892335754e+00
"loopGain" (-1.909479505527967e-14 -1.336834710691896e-06)
"ZL" (1.137923268475906e+04 -7.475992917661581e+09)
"ZG" (-4.338072484513245e-10 1.499813518072947e-03)
"YL" (6.785075039499659e-11 2.409044359807544e-07)
"YG" (1.800049857132528e-01 -5.072515773001100e-05)
"freq" 3.758374042884441e+00
"loopGain" (-2.141158592930616e-14 -1.416047147246731e-06)
"ZL" (1.019307268638953e+04 -7.057792424648741e+09)
"ZG" (-1.929464443617864e-10 1.590651901535299e-03)
"YL" (7.612979357001133e-11 2.551789187527467e-07)
"YG" (1.800049839688482e-01 -5.373081176499277e-05)
"freq" 3.981071705534972e+00
"loopGain" (-2.409914961022744e-14 -1.499953215747826e-06)
"ZL" (9.971870578020129e+03 -6.662985700994548e+09)
"ZG" (-1.268028469709657e-10 1.683648271410211e-03)
"YL" (8.541900198486171e-11 2.702992173410354e-07)
"YG" (1.800049820135729e-01 -5.691456190118984e-05)
"freq" 4.216965034285822e+00
"loopGain" (-2.701948664517068e-14 -1.588831031372587e-06)
"ZL" (9.961910857050438e+03 -6.290264119557833e+09)
"ZG" (-1.393663454011191e-10 1.783610432835531e-03)
"YL" (9.584169698142230e-11 2.863154493902640e-07)
"YG" (1.800049798178094e-01 -6.028696097536636e-05)
"freq" 4.466835921509631e+00
"loopGain" (-3.030458336332137e-14 -1.682975188658741e-06)
"ZL" (9.966633288177271e+03 -5.938392256780130e+09)
"ZG" (-1.935139446517228e-10 1.889536550333688e-03)
"YL" (1.075361566724698e-10 3.032807021942445e-07)
"YG" (1.800049773544449e-01 -6.385918711892428e-05)
"freq" 4.731512589614804e+00
"loopGain" (-3.397500759791334e-14 -1.782697737967811e-06)
"ZL" (9.524851106090548e+03 -5.606203797498619e+09)
"ZG" (-5.884281143347891e-11 2.002304723869061e-03)
"YL" (1.206575432998333e-10 3.212512086493220e-07)
"YG" (1.800049745937715e-01 -6.764308080651827e-05)
"freq" 5.011872336272723e+00
"loopGain" (-3.821874017206291e-14 -1.888329219807618e-06)
"ZL" (9.786458643959328e+03 -5.292597669788093e+09)
"ZG" (-1.902863964172858e-10 2.120047736547938e-03)
"YL" (1.353799936055687e-10 3.402865336219830e-07)
"YG" (1.800049714936236e-01 -7.165118409320256e-05)
"freq" 5.308844442309884e+00
"loopGain" (-4.288623254428027e-14 -2.000219760442449e-06)
"ZL" (9.728981679016655e+03 -4.996534393933540e+09)
"ZG" (-1.750917167132202e-10 2.246088621882407e-03)
"YL" (1.518988595047301e-10 3.604497714045266e-07)
"YG" (1.800049680149255e-01 -7.589678219797111e-05)
"freq" 5.623413251903491e+00
"loopGain" (-4.808826227272419e-14 -2.118740232422017e-06)
"ZL" (1.079759693753403e+04 -4.717032638789129e+09)
"ZG" (-7.757116311381444e-10 2.377579042554874e-03)
"YL" (1.704333493484707e-10 3.818077548288215e-07)
"YG" (1.800049641136033e-01 -8.039394753129830e-05)
"freq" 5.956621435290105e+00
"loopGain" (-5.378625653806407e-14 -2.244283483876177e-06)
"ZL" (9.762666859187853e+03 -4.453165966002098e+09)
"ZG" (-2.459035694190978e-10 2.520949367117012e-03)
"YL" (1.912293242768138e-10 4.044312767699248e-07)
"YG" (1.800049597343168e-01 -8.515758633315370e-05)
"freq" 6.309573444801933e+00
"loopGain" (-6.070553551492925e-14 -2.377265640649878e-06)
"ZL" (9.956642624289130e+03 -4.204059764192583e+09)
"ZG" (-4.237540800039913e-10 2.668844448967946e-03)
"YL" (2.145628476938019e-10 4.283953248098822e-07)
"YG" (1.800049548210922e-01 -9.020348808992484e-05)
"freq" 6.683439175686147e+00
"loopGain" (-6.812944289081997e-14 -2.518127485594562e-06)
"ZL" (1.023524797532080e+04 -3.968888345086383e+09)
"ZG" (-6.736441039835531e-10 2.826674309493426e-03)
"YL" (2.407434917096265e-10 4.537793297604082e-07)
"YG" (1.800049493071232e-01 -9.554837785705875e-05)
"freq" 7.079457843841380e+00
"loopGain" (-7.612260032465295e-14 -2.667335919587609e-06)
"ZL" (1.016182852606124e+04 -3.746872208917117e+09)
"ZG" (-7.080165010432912e-10 2.994685947238936e-03)
"YL" (2.701185881448368e-10 4.806674289483006e-07)
"YG" (1.800049431214543e-01 -1.012099717033847e-04)
"freq" 7.498942093324560e+00
"loopGain" (-8.540948946132184e-14 -2.825385509122674e-06)
"ZL" (9.774557294731980e+03 -3.537275460663279e+09)
"ZG" (-4.498612445187657e-10 3.172756329536953e-03)
"YL" (3.030779986637692e-10 5.091487450678247e-07)
"YG" (1.800049361823559e-01 -1.072070354219090e-04)
"freq" 7.943282347242817e+00
"loopGain" (-9.590595108202630e-14 -2.992800125600491e-06)
"ZL" (9.856128482810684e+03 -3.339403371093872e+09)
"ZG" (-5.284746336089305e-10 3.360832896335835e-03)
"YL" (3.400591252582431e-10 5.393176815608806e-07)
"YG" (1.800049283943540e-01 -1.135594467245685e-04)
"freq" 8.413951416451953e+00
"loopGain" (-1.076765519416144e-13 -3.170134681753789e-06)
"ZL" (9.971490681181896e+03 -3.152600072853560e+09)
"ZG" (-7.482569593417625e-10 3.559590704547583e-03)
"YL" (3.815526091594164e-10 5.712742355308114e-07)
"YG" (1.800049196564432e-01 -1.202882611350865e-04)
"freq" 8.912509381337458e+00
"loopGain" (-1.209851219100923e-13 -3.357976970961937e-06)
"ZL" (9.781345735362334e+03 -2.976246387221689e+09)
"ZG" (-5.733984731507624e-10 3.770533610324813e-03)
"YL" (4.281090345827491e-10 6.051243291454736e-07)
"YG" (1.800049098531775e-01 -1.274157817667326e-04)
"freq" 9.440608762859236e+00
"loopGain" (-1.353251633177555e-13 -3.556949615551594e-06)
"ZL" (1.017192159476360e+04 -2.809757772635808e+09)
"ZG" (-1.245035140640311e-09 3.993841786557704e-03)
"YL" (4.803462237996327e-10 6.409801607033878e-07)
"YG" (1.800048988559678e-01 -1.349656332430350e-04)
"freq" 1.000000000000000e+01
"loopGain" (-1.518684711106289e-13 -3.767712130541655e-06)
"ZL" (9.847671088715379e+03 -2.652582384745311e+09)
"ZG" (-8.965327646064627e-10 4.231021213615445e-03)
"YL" (5.389572399858557e-10 6.789605764610312e-07)
"YG" (1.800048865138179e-01 -1.429628399856424e-04)
"freq" 1.059253725177289e+01
"loopGain" (-1.707803814652438e-13 -3.990963109672752e-06)
"ZL" (1.020808626628269e+04 -2.504199250850069e+09)
"ZG" (-1.736751955819178e-09 4.480602014659755e-03)
"YL" (6.047200256960973e-10 7.191914645758686e-07)
"YG" (1.800048726683716e-01 -1.514339091763436e-04)
"freq" 1.122018454301964e+01
"loopGain" (-1.911699953837046e-13 -4.227442540967004e-06)
"ZL" (1.003889635084817e+04 -2.364116539022650e+09)
"ZG" (-1.542499322272209e-09 4.747026297090537e-03)
"YL" (6.785068996025030e-10 7.618061722381023e-07)
"YG" (1.800048571291157e-01 -1.604069185708470e-04)
"freq" 1.188502227437019e+01
"loopGain" (-2.147819933923622e-13 -4.477934259493441e-06)
"ZL" (9.993976669347112e+03 -2.231869931433699e+09)
"ZG" (-1.523325845707766e-09 5.028100674641905e-03)
"YL" (7.612972058985635e-10 8.069459476812891e-07)
"YG" (1.800048396926414e-01 -1.699116095867006e-04)
"freq" 1.258925411794168e+01
"loopGain" (-2.409914964603885e-13 -4.743268545468893e-06)
"ZL" (9.971870566660196e+03 -2.107021083202825e+09)
"ZG" (-1.705310208185520e-09 5.326034726942649e-03)
"YL" (8.541894119422129e-10 8.547604082822944e-07)
"YG" (1.800048201361489e-01 -1.799794858649061e-04)
"freq" 1.333521432163325e+01
"loopGain" (-2.704169115071743e-13 -5.024324876305898e-06)
"ZL" (9.961910852633380e+03 -1.989156170147878e+09)
"ZG" (-1.807840236676467e-09 5.641596470390033e-03)
"YL" (9.584161631044520e-10 9.054080362680192e-07)
"YG" (1.800047981879858e-01 -1.906439176227173e-04)
"freq" 1.412537544622755e+01
"loopGain" (-3.034899234104924e-13 -5.322034841729914e-06)
"ZL" (9.966633280793973e+03 -1.877884517060204e+09)
"ZG" (-2.192942069274114e-09 5.975656195336086e-03)
"YL" (1.075360469801267e-09 9.590567041002473e-07)
"YG" (1.800047735647673e-01 -2.019402523158901e-04)
"freq" 1.496235656094434e+01
"loopGain" (-3.401941659038904e-13 -5.637385231628125e-06)
"ZL" (1.002733531036903e+04 -1.772837302806739e+09)
"ZG" (-2.621877865969199e-09 6.329875252814205e-03)
"YL" (1.206574100885760e-09 1.015884230615890e-06)
"YG" (1.800047459335808e-01 -2.139059317081224e-04)
"freq" 1.584893192461114e+01
"loopGain" (-3.819653580149977e-13 -5.971421306864421e-06)
"ZL" (1.001037836680947e+04 -1.673666337582733e+09)
"ZG" (-2.835667088909057e-09 6.704922853273521e-03)
"YL" (1.353798207300832e-09 1.076078970409536e-06)
"YG" (1.800047149340716e-01 -2.265806159991497e-04)
"freq" 1.678804018122561e+01
"loopGain" (-4.284182373654538e-13 -6.325250263902534e-06)
"ZL" (1.002833465712305e+04 -1.580042909293548e+09)
"ZG" (-3.277665220135319e-09 7.102229612273569e-03)
"YL" (1.518986267001745e-09 1.139840437845038e-06)
"YG" (1.800046801500248e-01 -2.400063151938593e-04)
"freq" 1.778279410038923e+01
"loopGain" (-4.807716018507835e-13 -6.700044904721398e-06)
"ZL" (1.004166711771911e+04 -1.491656693540281e+09)
"ZG" (-3.784211553465827e-09 7.523036484874841e-03)
"YL" (1.704330276956347e-09 1.207379968258187e-06)
"YG" (1.800046411227892e-01 -2.542275283434307e-04)
"freq" 1.883649089489801e+01
"loopGain" (-5.395279017131247e-13 -7.097047524186044e-06)
"ZL" (9.960820694294664e+03 -1.408214725108258e+09)
"ZG" (-3.769568626499876e-09 7.968971344633806e-03)
"YL" (1.912289514585148e-09 1.278921418121816e-06)
"YG" (1.800045973329209e-01 -2.692913909613955e-04)
"freq" 1.995262314968880e+01
"loopGain" (-6.052790005694927e-13 -7.517574027760034e-06)
"ZL" (1.002728438650098e+04 -1.329440427482063e+09)
"ZG" (-4.605144835299125e-09 8.440955557942479e-03)
"YL" (2.145623572513851e-09 1.354701906778114e-06)
"YG" (1.800045481999414e-01 -2.852478312125032e-04)
"freq" 2.113489039836647e+01
"loopGain" (-6.788519410975894e-13 -7.963018293207648e-06)
"ZL" (9.983409244022238e+03 -1.255072694870750e+09)
"ZG" (-4.889075643184458e-09 8.941376501573665e-03)
"YL" (2.407428438669707e-09 1.434972602039780e-06)
"YG" (1.800044930746607e-01 -3.021497353289587e-04)
"freq" 2.238721138568340e+01
"loopGain" (-7.620031629444261e-13 -8.434856790743080e-06)
"ZL" (1.002154620013688e+04 -1.184865028186214e+09)
"ZG" (-5.756803322907033e-09 9.470949295853900e-03)
"YL" (2.701178283463290e-09 1.519999552175868e-06)
"YG" (1.800044312173610e-01 -3.200531227735446e-04)
"freq" 2.371373705661656e+01
"loopGain" (-8.550940998430297e-13 -8.934653476941148e-06)
"ZL" (9.999605045478056e+03 -1.118584716753541e+09)
"ZG" (-6.243782295841421e-09 1.003214296021378e-02)
"YL" (3.030770700400784e-09 1.610064567474874e-06)
"YG" (1.800043618164227e-01 -3.390173319098312e-04)
"freq" 2.511886431509581e+01
"loopGain" (-9.592815611012408e-13 -9.464064978629434e-06)
"ZL" (9.989844458241832e+03 -1.056012067879337e+09)
"ZG" (-7.044838162989591e-09 1.062671437952305e-02)
"YL" (3.400579163965309e-09 1.705466153503086e-06)
"YG" (1.800042839491896e-01 -3.591052164639563e-04)
"freq" 2.660725059798811e+01
"loopGain" (-1.076321437351039e-12 -1.002484608394663e-05)
"ZL" (1.001121534288446e+04 -9.969396782131327e+08)
"ZG" (-8.000283442339304e-09 1.125630348297080e-02)
"YL" (3.815510752160202e-09 1.806520499823535e-06)
"YG" (1.800041965735742e-01 -3.803833537111840e-04)
"freq" 2.818382931264455e+01
"loopGain" (-1.207852826650533e-12 -1.061885555876552e-05)
"ZL" (9.993774485181528e+03 -9.411717461819801e+08)
"ZG" (-8.824429794110603e-09 1.192326522217322e-02)
"YL" (4.281071139925716e-09 1.913562527493978e-06)
"YG" (1.800040985455254e-01 -4.029222651049290e-04)
"freq" 2.985382618917961e+01
"loopGain" (-1.355028001342600e-12 -1.124806230776091e-05)
"ZL" (1.001414846309860e+04 -8.885234234825693e+08)
"ZG" (-1.017395976688886e-08 1.262973530687908e-02)
"YL" (4.803437898342265e-09 2.026946997637931e-06)
"YG" (1.800039885490173e-01 -4.267966495865310e-04)
"freq" 3.162277660168380e+01
"loopGain" (-1.520350059899539e-12 -1.191455190054466e-05)
"ZL" (9.974224700672441e+03 -8.388202016779804e+08)
"ZG" (-1.077043831726405e-08 1.337836007600116e-02)
"YL" (5.389542213316203e-09 2.147049686698150e-06)
"YG" (1.800038651345007e-01 -4.520856311619114e-04)
"freq" 3.349654391578277e+01
"loopGain" (-1.706027475758761e-12 -1.262053348449704e-05)
"ZL" (1.000756849749449e+04 -7.918973347230678e+08)
"ZG" (-1.273303636938577e-08 1.417075393968513e-02)
"YL" (6.047161236856961e-09 2.274268630181325e-06)
"YG" (1.800037266637871e-01 -4.788730207179068e-04)
"freq" 3.548133892335755e+01
"loopGain" (-1.913920422477822e-12 -1.336834710721020e-05)
"ZL" (9.994218275774118e+03 -7.475992917121168e+08)
"ZG" (-1.395894517761641e-08 1.501066821121227e-02)
"YL" (6.785020611993585e-09 2.409025440312337e-06)
"YG" (1.800035712931288e-01 -5.072475934638736e-04)
"freq" 3.758374042884443e+01
"loopGain" (-2.147264850852577e-12 -1.416047147281344e-05)
"ZL" (1.000393112140525e+04 -7.057792424714228e+08)
"ZG" (-1.589727523216152e-08 1.590009372468933e-02)
"YL" (7.612910972042020e-09 2.551766701701431e-06)
"YG" (1.800033969659194e-01 -5.373033828616189e-04)
"freq" 3.981071705534974e+01
"loopGain" (-2.409581933506119e-12 -1.499953215788952e-05)
"ZL" (9.998486884572949e+03 -6.662985700964298e+08)
"ZG" (-1.769928246180127e-08 1.684210474120017e-02)
"YL" (8.541817320996077e-09 2.702965448964075e-06)
"YG" (1.800032013675418e-01 -5.691399917022243e-04)
"freq" 4.216965034285824e+01
"loopGain" (-2.703392004040326e-12 -1.588831031421462e-05)
"ZL" (9.985632720310357e+03 -6.290264119101902e+08)
"ZG" (-1.948386292133348e-08 1.784029448833925e-02)
"YL" (9.584064952779466e-09 2.863122731859662e-06)
"YG" (1.800029819014120e-01 -6.028629216836880e-04)
"freq" 4.466835921509633e+01
"loopGain" (-3.033344978620482e-12 -1.682975188716851e-05)
"ZL" (9.994822699928121e+03 -5.938392256618407e+08)
"ZG" (-2.211548948858451e-08 1.889727745970356e-02)
"YL" (1.075348307250032e-08 3.032769272767313e-06)
"YG" (1.800027356603527e-01 -6.385839224264746e-04)
"freq" 4.731512589614807e+01
"loopGain" (-3.403385020420344e-12 -1.782697738036844e-05)
"ZL" (1.000849157483090e+04 -5.606203798000556e+08)
"ZG" (-2.541833850196673e-08 2.001688535047292e-02)
"YL" (1.206558797646666e-08 3.212467221556274e-06)
"YG" (1.800024593739815e-01 -6.764213609467712e-04)
"freq" 5.011872336272725e+01
"loopGain" (-3.818765491685799e-12 -1.888329219889666e-05)
"ZL" (9.999181859101001e+03 -5.292597669850537e+08)
"ZG" (-2.814369191832624e-08 2.120306279592502e-02)
"YL" (1.353778905562346e-08 3.402812014225179e-06)
"YG" (1.800021493749833e-01 -7.165006130285474e-04)
"freq" 5.308844442309886e+01
"loopGain" (-4.284848620704257e-12 -2.000219760539987e-05)
"ZL" (9.998398798329785e+03 -4.996534393992794e+08)
"ZG" (-3.137679403740274e-08 2.245933299146698e-02)
"YL" (1.518961979715972e-08 3.604434340835169e-06)
"YG" (1.800018015506874e-01 -7.589544776042357e-04)
"freq" 5.623413251903494e+01
"loopGain" (-4.807605138760005e-12 -2.118740232537934e-05)
"ZL" (9.992753540416676e+03 -4.717032638127860e+08)
"ZG" (-3.498292710657942e-08 2.379024443560647e-02)
"YL" (1.704299677254193e-08 3.818002229243742e-06)
"YG" (1.800014112896830e-01 -8.039236155252908e-04)
"freq" 5.956621435290108e+01
"loopGain" (-5.394057951279436e-12 -2.244283484013915e-05)
"ZL" (9.996487604732964e+03 -4.453165965960932e+08)
"ZG" (-3.951761608882811e-08 2.519985286681465e-02)
"YL" (1.912251038701546e-08 4.044223251054456e-06)
"YG" (1.800009734095509e-01 -8.515570139821561e-04)
"freq" 6.309573444801936e+01
"loopGain" (-6.052457164726080e-12 -2.377265640813613e-05)
"ZL" (1.000255884490682e+04 -4.204059764355291e+08)
"ZG" (-4.471416630147628e-08 2.669297192357042e-02)
"YL" (2.145575109452182e-08 4.283846857729629e-06)
"YG" (1.800004821063933e-01 -9.020124784941510e-04)
"freq" 6.683439175686149e+01
"loopGain" (-6.790851163776944e-12 -2.518127485789165e-05)
"ZL" (9.999148163897240e+03 -3.968888344932303e+08)
"ZG" (-4.988846438610714e-08 2.827467454056284e-02)
"YL" (2.407367494500250e-08 4.537666852789171e-06)
"YG" (1.799999308535932e-01 -9.554571533379453e-04)
"freq" 7.079457843841382e+01
"loopGain" (-7.619365853712980e-12 -2.667335919818912e-05)
"ZL" (9.999100049996445e+03 -3.746872208791649e+08)
"ZG" (-5.597292844520591e-08 2.995010418241257e-02)
"YL" (2.701101478918171e-08 4.806524010098613e-06)
"YG" (1.799993123449658e-01 -1.012068073013326e-03)
"freq" 7.498942093324561e+01
"loopGain" (-8.549165092415229e-12 -2.825385509397539e-05)
"ZL" (9.999603827461437e+03 -3.537275460788962e+08)
"ZG" (-6.292484287826792e-08 3.172473575846821e-02)
"YL" (3.030674028794617e-08 5.091308843935893e-06)
"YG" (1.799986183698977e-01 -1.072032745351055e-03)
"freq" 7.943282347242818e+01
"loopGain" (-9.592150044738905e-12 -2.992800125927167e-05)
"ZL" (9.998757495244305e+03 -3.339403371122936e+08)
"ZG" (-7.051134799886251e-08 3.360458443070517e-02)
"YL" (3.400457484249299e-08 5.392964542074776e-06)
"YG" (1.799978397248022e-01 -1.135549769238125e-03)
"freq" 8.413951416451954e+01
"loopGain" (-1.076288202110241e-11 -3.170134682142051e-05)
"ZL" (1.000128256695106e+04 -3.152600072975458e+08)
"ZG" (-7.941218371273510e-08 3.559566206960211e-02)
"YL" (3.815357544958490e-08 5.712490068978099e-06)
"YG" (1.799969660774242e-01 -1.202829487934037e-03)
"freq" 8.912509381337459e+01
"loopGain" (-1.207564258613869e-11 -3.357976971423401e-05)
"ZL" (1.000085364113028e+04 -2.976246387452506e+08)
"ZG" (-8.897543166730458e-08 3.770493962496626e-02)
"YL" (4.280878269623107e-08 6.050943450241639e-06)
"YG" (1.799959858399044e-01 -1.274094680715223e-03)
"freq" 9.440608762859237e+01
"loopGain" (-1.354939296739459e-11 -3.556949616100024e-05)
"ZL" (1.000152466638930e+04 -2.809757772640337e+08)
"ZG" (-9.990797775453418e-08 3.993901060356810e-02)
"YL" (4.803195085905761e-08 6.409445247147753e-06)
"YG" (1.799948860063687e-01 -1.349581294426798e-03)
"freq" 1.000000000000000e+02
"loopGain" (-1.520261384617486e-11 -3.767712131193480e-05)
"ZL" (9.999533135218055e+03 -2.652582384849054e+08)
"ZG" (-1.118048215015681e-07 4.230561805194507e-02)
"YL" (5.389236594615473e-08 6.789182233067968e-06)
"YG" (1.799936519907376e-01 -1.429539217660953e-03)
"freq" 1.059253725177289e+02
"loopGain" (-1.705761201707356e-11 -3.990963110447441e-05)
"ZL" (1.000004667957339e+04 -2.504199250702863e+08)
"ZG" (-1.256006027253676e-07 4.481235910263491e-02)
"YL" (6.046776422655094e-08 7.191411281441118e-06)
"YG" (1.799922674228881e-01 -1.514233099330918e-03)
"freq" 1.122018454301964e+02
"loopGain" (-1.913887341733105e-11 -4.227442541887724e-05)
"ZL" (9.999800221745449e+03 -2.364116538994419e+08)
"ZG" (-1.408824546623998e-07 4.746769083639777e-02)
"YL" (6.784536207574805e-08 7.617463478071745e-06)
"YG" (1.799907139364549e-01 -1.603943214599116e-03)
"freq" 1.188502227437019e+02
"loopGain" (-2.147420566525622e-11 -4.477934260587709e-05)
"ZL" (9.999946147440840e+03 -2.231869931458908e+08)
"ZG" (-1.580746107130616e-07 5.028031302414053e-02)
"YL" (7.612301147903366e-08 8.068748469157462e-06)
"YG" (1.799889709265643e-01 -1.698966380422270e-03)
"freq" 1.258925411794168e+02
"loopGain" (-2.409449064842965e-11 -4.743268546769400e-05)
"ZL" (1.000025782089812e+04 -2.107021083282546e+08)
"ZG" (-1.774654323989173e-07 5.325959880428902e-02)
"YL" (8.541049612239344e-08 8.546759057762528e-06)
"YG" (1.799870152799659e-01 -1.799616923402728e-03)
"freq" 1.333521432163325e+02
"loopGain" (-2.703459068236867e-11 -5.024324877851572e-05)
"ZL" (9.999861965407197e+03 -1.989156170200921e+08)
"ZG" (-1.990045871085106e-07 5.641543480313714e-02)
"YL" (9.583098514055026e-08 9.053076061034679e-06)
"YG" (1.799848210598375e-01 -1.906227702459369e-03)
"freq" 1.412537544622755e+02
"loopGain" (-3.033323341704198e-11 -5.322034843567025e-05)
"ZL" (1.000045618546035e+04 -1.877884517177548e+08)
"ZG" (-2.233874030651432e-07 5.975825083948744e-02)
"YL" (1.075226638097069e-07 9.589373442581379e-06)
"YG" (1.799823591648258e-01 -2.019151189520042e-03)
"freq" 1.496235656094434e+02
"loopGain" (-3.403452348298200e-11 -5.637385233811486e-05)
"ZL" (9.999693362076006e+03 -1.772837302769589e+08)
"ZG" (-2.504772404492423e-07 6.329916602123019e-02)
"YL" (1.206405624373290e-07 1.015742373387646e-05)
"YG" (1.799795969549933e-01 -2.138760611166862e-03)
"freq" 1.584893192461114e+02
"loopGain" (-3.818744186716293e-11 -5.971421309459355e-05)
"ZL" (1.000029589685521e+04 -1.673666337640107e+08)
"ZG" (-2.811792130921473e-07 6.704984191594833e-02)
"YL" (1.353586077252691e-07 1.075910375698164e-05)
"YG" (1.799764978047599e-01 -2.265451153474772e-03)
"freq" 1.678804018122561e+02
"loopGain" (-4.284694321881833e-11 -6.325250266986646e-05)
"ZL" (1.000038822666922e+04 -1.580042909342727e+08)
"ZG" (-3.155452913954939e-07 7.102280507322911e-02)
"YL" (1.518719230314698e-07 1.139640066571579e-05)
"YG" (1.799730206290437e-01 -2.399641234166753e-03)
"freq" 1.778279410038924e+02
"loopGain" (-4.807506644295331e-11 -6.700044908386875e-05)
"ZL" (1.000030571461421e+04 -1.491656693562016e+08)
"ZG" (-3.539926700460069e-07 7.523117659861391e-02)
"YL" (1.703994083146529e-07 1.207141831755586e-05)
"YG" (1.799691193319818e-01 -2.541773844154156e-03)
"freq" 1.883649089489801e+02
"loopGain" (-5.394115257150343e-11 -7.097047528542501e-05)
"ZL" (1.000004652105164e+04 -1.408214725212567e+08)
"ZG" (-3.970813095376728e-07 7.968890079267496e-02)
"YL" (1.911866329556156e-07 1.278638399329216e-05)
"YG" (1.799647422098007e-01 -2.692317962642042e-03)
"freq" 1.995262314968880e+02
"loopGain" (-6.052259584012849e-11 -7.517574032937652e-05)
"ZL" (9.999724585865184e+03 -1.329440427437877e+08)
"ZG" (-4.453012957100084e-07 8.441081054224664e-02)
"YL" (2.145090794683603e-07 1.354365547571157e-05)
"YG" (1.799598312471428e-01 -2.851770047302191e-03)
"freq" 2.113489039836648e+02
"loopGain" (-6.790765190410983e-11 -7.963018299361075e-05)
"ZL" (9.999768026061329e+03 -1.255072694903972e+08)
"ZG" (-4.997760228868436e-07 8.941244173747778e-02)
"YL" (2.406757803826749e-07 1.434572850690414e-05)
"YG" (1.799543213743292e-01 -3.020655604824318e-03)
"freq" 2.238721138568341e+02
"loopGain" (-7.619358332452041e-11 -8.434856798056621e-05)
"ZL" (1.000049171710551e+04 -1.184865028281949e+08)
"ZG" (-5.612945609432416e-07 9.471044064666161e-02)
"YL" (2.700333952821543e-07 1.519524463335456e-05)
"YG" (1.799481396021338e-01 -3.199530842725436e-03)
"freq" 2.371373705661656e+02
"loopGain" (-8.549069680501922e-11 -8.934653485633252e-05)
"ZL" (9.999841611899028e+03 -1.118584716774547e+08)
"ZG" (-6.292138435270442e-07 1.003224113370211e-01)
"YL" (3.029707809807188e-07 1.609499945290994e-05)
"YG" (1.799412040418521e-01 -3.388984405508262e-03)
"freq" 2.511886431509581e+02
"loopGain" (-9.592200129084423e-11 -9.464064988960147e-05)
"ZL" (1.000008077032142e+04 -1.056012067967736e+08)
"ZG" (-7.061274107693960e-07 1.062668866455303e-01)
"YL" (3.399241147231610e-07 1.704795128045033e-05)
"YG" (1.799334228510318e-01 -3.589639199762296e-03)
"freq" 2.660725059798811e+02
"loopGain" (-1.076264491696932e-10 -1.002484609622469e-04)
"ZL" (1.000007534854481e+04 -9.969396782610101e+07)
"ZG" (-7.923698411315264e-07 1.125635891645285e-01)
"YL" (3.813826345369538e-07 1.805723023701414e-05)
"YG" (1.799246930147176e-01 -3.802154307736046e-03)
"freq" 2.818382931264455e+02
"loopGain" (-1.207586252345907e-10 -1.061885557335800e-04)
"ZL" (9.999951204737015e+03 -9.411717462440495e+07)
"ZG" (-8.888184345783039e-07 1.192334161038403e-01)