HEADER
"PSFversion" "1.00"
"simulator" "spectre"
"version" "25.1.0.235.isr5"
"date" "5:24:46 PM, Wed Jul 22, 2026"
"design" "// tb_nmc3.scs -- behavioral gm-C THREE-STAGE nested-Miller (NMC) amplifier."
"analysis type" "margin.stb"
"analysis name" "stb"
"analysis description" "Stability Analysis `stb': freq = (1 Hz -> 10 GHz)"
"xVecSorted" "ascending"
"tolerance.relative" 1.000000000000000e-03
"operating point producer" "stb"
"probe" "IPRB2"
TYPE
"dB" FLOAT DOUBLE PROP(
"key" "gain"
"units" "dB"
)
"Deg" FLOAT DOUBLE PROP(
"key" "gain"
"units" "Deg"
)
"Hz" FLOAT DOUBLE PROP(
"key" "gain"
"units" "Hz"
)
"stbstate" STRING *
VALUE
"gainMargin" "dB" nan
"gainMarginFreq" "Hz" nan
"phaseMargin" "Deg" nan
"phaseMarginFreq" "Hz" nan
"stb_state" "stbstate" "The circuit is not stable, because the gain(db) is larger than 0 at 7.943282e+06 Hz when phase of loopGain crosses zero degree."
END
