HEADER
"PSFversion" "1.00"
"simulator" "spectre"
"version" "25.1.0.235.isr5"
"date" "9:14:46 AM, Sun Jul 19, 2026"
"design" "// tb_fdota_stb_cm.scs (SKY130) -- fully-differential two-stage OTA with
"
"analysis type" "info"
"analysis name" "dcOpInfo"
"analysis description" "Circuit Information"
"xVecSorted" "unknown"
"tolerance.relative" 1.000000000000000e-03
"AnalysisName" "DC"
"AnalysisType" "dcOp"
"OpPointTemp.Value" 2.700000000000000e+01
"OpPointTemp.Units" "C"
TYPE
"bsim4" STRUCT(
"trise" FLOAT DOUBLE PROP(
"units" "C"
"description" "Temperature rise from ambient"
)
"dtemp" FLOAT DOUBLE PROP(
"units" "C"
"description" "Alias for trise"
)
"ids" FLOAT DOUBLE PROP(
"units" "A"
"description" "Resistive drain-to-source current"
)
"vgs" FLOAT DOUBLE PROP(
"units" "V"
"description" "Gate-source voltage"
)
"vds" FLOAT DOUBLE PROP(
"units" "V"
"description" "Drain-source voltage"
)
"vbs" FLOAT DOUBLE PROP(
"units" "V"
"description" "Bulk-source voltage"
)
"vgd" FLOAT DOUBLE PROP(
"units" "V"
"description" "Gate-drain voltage"
)
"vdb" FLOAT DOUBLE PROP(
"units" "V"
"description" "Drain-bulk voltage"
)
"vgb" FLOAT DOUBLE PROP(
"units" "V"
"description" "Gate-bulk voltage"
)
"vth" FLOAT DOUBLE PROP(
"units" "V"
"description" "Threshold voltage (alias=lv9)"
)
"vdsat" FLOAT DOUBLE PROP(
"units" "V"
"description" "Drain-source saturation voltage (alias=lv10)"
)
"gm" FLOAT DOUBLE PROP(
"units" "S"
"description" "Common-source transconductance (alias=lx7)"
)
"gds" FLOAT DOUBLE PROP(
"units" "S"
"description" "Common-source output conductance (alias=lx8)"
)
"gmbs" FLOAT DOUBLE PROP(
"units" "S"
"description" "Body-transconductance (alias=lx9)"
)
"betaeff" FLOAT DOUBLE PROP(
"units" "A/V^2"
"description" "Effective beta (alias LV21)"
)
"pro_Gamma" FLOAT DOUBLE PROP(
"description" "Gamma"
)
"cjd" FLOAT DOUBLE PROP(
"units" "F"
"description" "Drain-bulk junction capacitance (alias=lx29)"
)
"cjs" FLOAT DOUBLE PROP(
"units" "F"
"description" "Source-bulk junction capacitance (alias=lx28)"
)
"cgg" FLOAT DOUBLE PROP(
"units" "F"
"description" "Total gate capacitance, including intrinsic, overlap and fringing components (alias=lx82)"
)
"cgd" FLOAT DOUBLE PROP(
"units" "F"
"description" "Total gate-to-drain capacitance, including intrinsic, overlap, and fringing components (alias=lx83)"
)
"cgs" FLOAT DOUBLE PROP(
"units" "F"
"description" "Total gate-to-source capacitance, including intrinsic, overlap, and fringing components (alias=lx84)"
)
"cgb" FLOAT DOUBLE PROP(
"units" "F"
"description" "Total gate-to-bulk capacitance, including intrinsic and overlap components"
)
"cdg" FLOAT DOUBLE PROP(
"units" "F"
"description" "Total drain-to-gate capacitance, including intrinsic, overlap, and fringing components (alias=lx87)"
)
"cdd" FLOAT DOUBLE PROP(
"units" "F"
"description" "Drain capacitance, including intrinsic, overlap, and fringing components"
)
"cds" FLOAT DOUBLE PROP(
"units" "F"
"description" "Total drain-to-source capacitance (alias=lx86)"
)
"cdb" FLOAT DOUBLE PROP(
"units" "F"
"description" "Intrinsic drain-to-bulk capacitance"
)
"csg" FLOAT DOUBLE PROP(
"units" "F"
"description" "Total source-to-gate capacitance, including intrinsic, overlap, and fringing components"
)
"csd" FLOAT DOUBLE PROP(
"units" "F"
"description" "Total source-to-drain capacitance"
)
"css" FLOAT DOUBLE PROP(
"units" "F"
"description" "Source capacitance, including intrinsic, overlap, and fringing components"
)
"csb" FLOAT DOUBLE PROP(
"units" "F"
"description" "Intrinsic source-to-bulk capacitance"
)
"cbg" FLOAT DOUBLE PROP(
"units" "F"
"description" "Total bulk-to-gate capacitance, including intrinsic and overlap components (alias=lx88)"
)
"cbd" FLOAT DOUBLE PROP(
"units" "F"
"description" "Intrinsic bulk-to-drain capacitance"
)
"cbs" FLOAT DOUBLE PROP(
"units" "F"
"description" "Intrinsic bulk-to-source capacitance"
)
"cbb" FLOAT DOUBLE PROP(
"units" "F"
"description" "Bulk capacitance, including intrinsic and overlap components"
)
"covlgs" FLOAT DOUBLE PROP(
"units" "F/m"
"description" "Gate-source overlap and fringing capacitances (alias=lv36)"
)
"covlgd" FLOAT DOUBLE PROP(
"units" "F/m"
"description" "Gate-drain overlap and fringing capacitances (alias=lv37)"
)
"covlgb" FLOAT DOUBLE PROP(
"units" "F/m"
"description" "Gate-bulk overlap capacitances (alias=lv38)"
)
"cggbo" FLOAT DOUBLE PROP(
"units" "F"
"description" "CGGBO = dQg/dVg intrinsic gate capacitance (alias=lx18)"
)
"cgdbo" FLOAT DOUBLE PROP(
"units" "F"
"description" "CGDBO = -dQg/dVd intrinsic gate-to-drain capacitance (alias=lx19)"
)
"cgsbo" FLOAT DOUBLE PROP(
"units" "F"
"description" "CGSBO = -dQg/dVs intrinsic gate-to-source capacitance (alias=lx20)"
)
"cbgbo" FLOAT DOUBLE PROP(
"units" "F"
"description" "CBGBO = -dQb/dVg intrinsic bulk-to-gate capacitance (alias=lx21)"
)
"cbdbo" FLOAT DOUBLE PROP(
"units" "F"
"description" "CBDBO = -dQb/dVd intrinsic bulk-to-drain capacitance (alias=lx22)"
)
"cbsbo" FLOAT DOUBLE PROP(
"units" "F"
"description" "CBSBO = -dQb/dVs intrinsic bulk-to-source capacitance (alias=lx23)"
)
"cdgbo" FLOAT DOUBLE PROP(
"units" "F"
"description" "CDGBO = -dQd/dVg intrinsic drain-to-gate capacitance (alias=lx32)"
)
"cddbo" FLOAT DOUBLE PROP(
"units" "F"
"description" "CDDBO = dQd/dVd intrinsic drain capacitance (alias=lx33)"
)
"cdsbo" FLOAT DOUBLE PROP(
"units" "F"
"description" "CDSBO = -dQd/dVs intrinsic drain-to-source capacitance (alias=lx34)"
)
"ron" FLOAT DOUBLE PROP(
"units" "Ohm"
"description" "On-resistance, includes the parasitical rs and rd"
)
"id" FLOAT DOUBLE PROP(
"units" "A"
"description" "Resistive drain current"
)
"ig" FLOAT DOUBLE PROP(
"units" "A"
"description" "Total DC gate current"
)
"is" FLOAT DOUBLE PROP(
"units" "A"
"description" "Total DC source current"
)
"ib" FLOAT DOUBLE PROP(
"units" "A"
"description" "Total DC bulk current"
)
"ibulk" FLOAT DOUBLE PROP(
"units" "A"
"description" "Resistive bulk current"
)
"pwr" FLOAT DOUBLE PROP(
"units" "W"
"description" "Power at op point"
)
"gmoverid" FLOAT DOUBLE PROP(
"units" "1/V"
"description" "Gm/Ids"
)
"rdeff" FLOAT DOUBLE PROP(
"units" "Ohm"
"description" "Effective drain resistance"
)
"rseff" FLOAT DOUBLE PROP(
"units" "Ohm"
"description" "Effective source resistance"
)
"rgbd" FLOAT DOUBLE PROP(
"units" "Ohm"
"description" "Gate bias-dependent resistance"
)
"igidl" FLOAT DOUBLE PROP(
"units" "A"
"description" "Gate-induced drain leakage current (alias=lx70)"
)
"igisl" FLOAT DOUBLE PROP(
"units" "A"
"description" "Gate-induced source leakage current"
)
"igdt" FLOAT DOUBLE PROP(
"units" "A"
"description" "Gate Dielectric tunneling current (alias=lx71)"
)
"igd" FLOAT DOUBLE PROP(
"units" "A"
"description" "Gate-to-drain tunneling current (alias=lx39)"
)
"igs" FLOAT DOUBLE PROP(
"units" "A"
"description" "Gate-to-source tunneling current (alias=lx38)"
)
"igb" FLOAT DOUBLE PROP(
"units" "A"
"description" "Gate-to-bulk tunneling current (alias=lx66)"
)
"igbacc" FLOAT DOUBLE PROP(
"units" "A"
"description" "Gate-to-bulk tunneling current determined by ECB (alias=lx73)"
)
"igbinv" FLOAT DOUBLE PROP(
"units" "A"
"description" "Gate-to-bulk tunneling current determined by EVB (alias=lx74)"
)
"igcs" FLOAT DOUBLE PROP(
"units" "A"
"description" "Gate-to-channel (source side) tunneling current (alias=lx67)"
)
"igcd" FLOAT DOUBLE PROP(
"units" "A"
"description" "Gate-to-channel (drain side) tunneling current (alias=lx68)"
)
"isub" FLOAT DOUBLE PROP(
"units" "A"
"description" " Substrate current ( alias to LX69 )"
)
"gbs" FLOAT DOUBLE PROP(
"units" "S"
"description" "Bulk-source diode conductance (alias=lx11)"
)
"gbd" FLOAT DOUBLE PROP(
"units" "S"
"description" "Bulk-drain diode conductance (alias=lx10)"
)
"qg" FLOAT DOUBLE PROP(
"units" "Coul"
"description" "Total gate charge, including intrinsic, overlap and fringing components"
)
"qd" FLOAT DOUBLE PROP(
"units" "Coul"
"description" "Total drain charge, including intrinsic, overlap and fringing components"
)
"qs" FLOAT DOUBLE PROP(
"units" "Coul"
"description" "Total source charge, including intrinsic, overlap and fringing components"
)
"qb" FLOAT DOUBLE PROP(
"units" "Coul"
"description" "Total bulk charge, including intrinsic and overlap components"
)
"qjd" FLOAT DOUBLE PROP(
"units" "Coul"
"description" "Drain-bulk junction charge"
)
"qjs" FLOAT DOUBLE PROP(
"units" "Coul"
"description" "Source-bulk junction charge"
)
"qgdovl" FLOAT DOUBLE PROP(
"units" "Coul"
"description" "Gate-drain overlap and fringing charge"
)
"qgsovl" FLOAT DOUBLE PROP(
"units" "Coul"
"description" "Gate-source overlap and fringing charge"
)
"qgi" FLOAT DOUBLE PROP(
"units" "Coul"
"description" "Intrinsic gate charge"
)
"qdi" FLOAT DOUBLE PROP(
"units" "Coul"
"description" "Intrinsic drain charge"
)
"qinv" FLOAT DOUBLE PROP(
"units" "Coul"
"description" "Inversion charge"
)
"qsi" FLOAT DOUBLE PROP(
"units" "Coul"
"description" "Intrinsic source charge"
)
"qbi" FLOAT DOUBLE PROP(
"units" "Coul"
"description" "Intrinsic bulk charge"
)
"vfbeff" FLOAT DOUBLE PROP(
"units" "V"
"description" "Effective Flat-band voltage"
)
"ide" FLOAT DOUBLE PROP(
"units" "A"
"description" "Total DC drain current"
)
"ige" FLOAT DOUBLE PROP(
"units" "A"
"description" "Total DC gate current"
)
"ise" FLOAT DOUBLE PROP(
"units" "A"
"description" "Total DC source current"
)
"ibe" FLOAT DOUBLE PROP(
"units" "A"
"description" "Total DC bulk current"
)
"idb" FLOAT DOUBLE PROP(
"units" "A"
"description" "DC drain-bulk current"
)
"isb" FLOAT DOUBLE PROP(
"units" "A"
"description" "DC source-bulk current"
)
"vsb" FLOAT DOUBLE PROP(
"units" "V"
"description" "Source-bulk DC voltage"
)
"gmb" FLOAT DOUBLE PROP(
"units" "S"
"description" "DC bulk transconductance"
)
"vgt" FLOAT DOUBLE PROP(
"units" "V"
"description" "effective gate drive voltage including back bias and drain bias effects"
)
"vth_drive" FLOAT DOUBLE PROP(
"units" "V"
"description" "effective gate drive voltage including back bias and drain bias effects. Alias for Vgt"
)
"vdss" FLOAT DOUBLE PROP(
"units" "V"
"description" "Drain saturation voltage at actual bias"
)
"vsat_marg" FLOAT DOUBLE PROP(
"units" "V"
"description" "Vds margin"
)
"vdsat_marg" FLOAT DOUBLE PROP(
"units" "V"
"description" "Vds margin"
)
"self_gain" FLOAT DOUBLE PROP(
"description" "Transistor self gain"
)
"rout" FLOAT DOUBLE PROP(
"units" "Ohm"
"description" "AC output resistor. The parasitical rs and rd are excluded"
)
"beff" FLOAT DOUBLE PROP(
"units" "A/V^2"
"description" "Gain factor in saturation"
)
"fug" FLOAT DOUBLE PROP(
"units" "Hz"
"description" "Unity current gain frequency at actual bias"
)
"ft" FLOAT DOUBLE PROP(
"units" "Hz"
"description" "Unity current gain frequency at actual bias"
)
"rgate" FLOAT DOUBLE PROP(
"units" "Ohm"
"description" "MOS gate resistance"
)
"vearly" FLOAT DOUBLE PROP(
"units" "V"
"description" "Equivalent early voltage"
)
"Tk" FLOAT DOUBLE PROP(
"units" "K"
"description" "Absolute Device temperature including self-heating"
)
"Dtsh" FLOAT DOUBLE PROP(
"units" "K"
"description" "Device temperature rise due to self-heating"
)
"Iavl" FLOAT DOUBLE PROP(
"units" "A"
"description" "Weak avalanche current"
)
"vth0" FLOAT DOUBLE PROP(
"units" "V"
"description" "Zero-bias threshold voltage, excluding back-bias (body effect) and drain-bias effect (DIBL)"
)
"go" FLOAT DOUBLE PROP(
"units" "S"
"description" "Common-source output conductance"
)
"co" FLOAT DOUBLE PROP(
"units" "F"
"description" "Output Drain-Source capacitance"
)
"cm" FLOAT DOUBLE PROP(
"units" "F"
"description" "Capacitance element 1 for QS model"
)
"cmb" FLOAT DOUBLE PROP(
"units" "F"
"description" "Capacitance element 2 for QS model"
)
"cmx" FLOAT DOUBLE PROP(
"units" "F"
"description" "Capacitance element 3 for QS model"
)
"tau1" FLOAT DOUBLE PROP(
"units" "s"
"description" "Time constant related to NQS first frequency pole"
)
"fqslim" FLOAT DOUBLE PROP(
"units" "Hz"
"description" "QS model frequency limit"
)
"gmoveri" FLOAT DOUBLE PROP(
"units" "1/V"
"description" "Gm/Ids"
)
"ueff" FLOAT DOUBLE PROP(
"description" "ueff"
)
"OPdef" INT LONG PROP(
"units" ""
"description" "1: Device Physics notation. 2: Circuit Simulator notation"
)
"Ctype" INT LONG PROP(
"units" ""
"description" "Flag for channel type of MOSFET. 1: NMOS. -1: PMOS"
)
"SDint" INT LONG PROP(
"units" ""
"description" "Flag for source-drain interchange. 1: No S-D interchange, -1: S-D interchange"
)
"region" INT BYTE PROP(
"description" "Estimated operating region. %Z outputs the number (0-4) in a rawfile"
)
"reversed" INT BYTE PROP(
"description" "Reverse mode indicator"
)
"SDop" INT BYTE PROP(
"description" "Operation mode related to channel type and drain-source voltage sign"
)
) PROP(
"key" "inst"
)
"capacitor" STRUCT(
"trise" FLOAT DOUBLE PROP(
"units" "C"
"description" "Temperature rise from ambient"
)
"v" FLOAT DOUBLE PROP(
"units" "V"
"description" "Voltage at operating point"
)
"cap" FLOAT DOUBLE PROP(
"units" "F"
"description" "Capacitance at operating point"
)
) PROP(
"key" "inst"
)
"iprobe" STRUCT(
"i" FLOAT DOUBLE PROP(
"units" "A"
"description" "current through iprobe"
)
) PROP(
"key" "inst"
)
"isource" STRUCT(
"i" FLOAT DOUBLE PROP(
"units" "A"
"description" "Current through the source"
)
"v" FLOAT DOUBLE PROP(
"units" "V"
"description" "Voltage across the source"
)
"pwr" FLOAT DOUBLE PROP(
"units" "W"
"description" "Power dissipation"
)
) PROP(
"key" "inst"
)
"resistor" STRUCT(
"trise" FLOAT DOUBLE PROP(
"units" "C"
"description" "Temperature rise from ambient"
)
"v" FLOAT DOUBLE PROP(
"units" "V"
"description" "Voltage at operating point"
)
"i" FLOAT DOUBLE PROP(
"units" "A"
"description" "Current through the resistor"
)
"res" FLOAT DOUBLE PROP(
"units" "Ohm"
"description" "Resistance at operating point"
)
"pwr" FLOAT DOUBLE PROP(
"units" "W"
"description" "Power dissipation"
)
) PROP(
"key" "inst"
)
"vsource" STRUCT(
"v" FLOAT DOUBLE PROP(
"units" "V"
"description" "Voltage across the source"
)
"i" FLOAT DOUBLE PROP(
"units" "A"
"description" "Current through the source"
)
"pwr" FLOAT DOUBLE PROP(
"units" "W"
"description" "Power dissipation"
)
) PROP(
"key" "inst"
)
VALUE
"I0.MPB.msky130_fd_pr__pfet_01v8" "bsim4" (
0.000000000000000e+00
0.000000000000000e+00
-9.595826446811769e-06
-1.130828449159717e+00
-1.130828449159717e+00
0.000000000000000e+00
0.000000000000000e+00
-1.130828449159717e+00
-1.130828449159717e+00
-1.050680766580608e+00
-1.170545864024341e-01
1.279811061125417e-04
1.182207058815514e-07
3.314018339273177e-05
1.759995341694026e-03
0.000000000000000e+00
1.414495957838144e-14
2.136356514182144e-14
3.786584742863466e-13
-2.949579350757104e-15
-3.431097622279452e-13
-3.259913270764434e-14
-1.245268260837120e-13
2.955687407680344e-15
1.541593108041030e-13
-3.258817212807132e-14
-1.852444303649117e-13
1.092257674615766e-17
2.340800074470150e-13
-4.884649965884943e-14
-6.888721783772289e-14
-1.703063366939761e-17
-4.512955602317281e-14
1.140338044945651e-13
2.961210496019947e-15
2.913509014042202e-15
0.000000000000000e+00
3.727837547762845e-13
-3.607033671490283e-17
-3.401485517319253e-13
-6.888721783772289e-14
-1.703063366939761e-17
-4.512955602317281e-14
-1.216133170696698e-13
4.217839363814278e-17
1.541593108041030e-13
1.178458630351153e+05
-9.595826625301661e-06
nan
nan
nan
1.784899455954899e-13
1.085123374109540e-05
1.333716348684731e+01
8.500000000000001e-03
8.500000000000001e-03
0.000000000000000e+00
-0.000000000000000e+00
-0.000000000000000e+00
-0.000000000000000e+00
-0.000000000000000e+00
-0.000000000000000e+00
-0.000000000000000e+00
-0.000000000000000e+00
-0.000000000000000e+00
-0.000000000000000e+00
-0.000000000000000e+00
1.559038464048295e-13
1.640590986035380e-12
1.000000000000007e-12
-2.809812599012931e-13
1.070953178848947e-14
4.828282263704741e-14
2.219889054757562e-13
1.927241333480677e-14
1.742313640879500e-21
-7.867692860110456e-18
-4.320749686788558e-16
-2.780642087586941e-13
2.998194491289479e-14
0.000000000000000e+00
4.536577344716355e-14
2.027164903986358e-13
-1.671478112452303e-01
-9.595828886958315e-06
-0.000000000000000e+00
9.595827577639920e-06
1.309318394718564e-12
1.153414414504139e-12
1.337990762564309e-19
-0.000000000000000e+00
3.314018339273177e-05
-8.014768257910898e-02
nan
-1.170545864024341e-01
1.013773862757283e+00
nan
1.082560835330906e+03
8.458755110140584e+06
2.987655728151058e-03
5.379207661618636e+07
nan
0.000000000000000e+00
8.116876663359328e+01
nan
nan
nan
nan
nan
nan
nan
nan
nan
nan
nan
nan
1.093459152370477e-02
2147483647
2147483647
2147483647
2
0
-1
) PROP(
"model" "I0.MPA.sky130_fd_pr__pfet_01v8__model.3"
)
"I0.MPA.msky130_fd_pr__pfet_01v8" "bsim4" (
0.000000000000000e+00
0.000000000000000e+00
-9.476576262394845e-06
-1.129893249362975e+00
-1.129893249362975e+00
0.000000000000000e+00
0.000000000000000e+00
-1.129893249362975e+00
-1.129893249362975e+00
-1.050680766317588e+00
-1.164749251572159e-01
1.268108028168172e-04
1.169861144680066e-07
3.284398482657423e-05
1.760096307070753e-03
0.000000000000000e+00
1.414829521319954e-14
2.136356515382888e-14
3.782165463779013e-13
-2.949492468645538e-15
-3.425354537048973e-13
-3.273160020435859e-14
-1.243323122710041e-13
2.955585676256708e-15
1.539178037918518e-13
-3.254107719710445e-14
-1.849528374089099e-13
1.089640475727386e-17
2.337178349250279e-13
-4.877589392087527e-14
-6.893139669798740e-14
-1.698961236844407e-17
-4.510018501198245e-14
1.140485713223383e-13
2.961209831966476e-15
2.913509013750289e-15
0.000000000000000e+00
3.723418275321846e-13
-3.598345489524865e-17
-3.395742438729308e-13
-6.893139669798740e-14
-1.698961236844407e-17
-4.510018501198246e-14
-1.214188032572538e-13
4.207666250641886e-17
1.539178037918518e-13
1.192301120233309e+05
-9.476576438453508e-06
nan
nan
nan
1.760587138209417e-13
1.070751974488085e-05
1.338149974268984e+01
8.500000000000001e-03
8.500000000000001e-03
0.000000000000000e+00
-0.000000000000000e+00
-0.000000000000000e+00
-0.000000000000000e+00
-0.000000000000000e+00
-0.000000000000000e+00
-0.000000000000000e+00
-0.000000000000000e+00
-0.000000000000000e+00
-0.000000000000000e+00
-0.000000000000000e+00
1.534726152795781e-13
1.640591004450939e-12
1.000000000000008e-12
-2.806301038385597e-13
1.060915939221559e-14
4.810972880232319e-14
2.219112156440209e-13
1.925918342626254e-14
1.720659754574373e-21
-7.867692521621021e-18
-4.317180592617455e-16
-2.777154651093005e-13
2.986834261069139e-14
0.000000000000000e+00
4.519509200151040e-14
2.026520304970987e-13
-1.671478112452303e-01
-9.476578698239765e-06
-0.000000000000000e+00
9.476577392287801e-06
1.305951963147420e-12
1.152479215721084e-12
1.321361890995718e-19
-0.000000000000000e+00
3.284398482657423e-05
-7.921248304538708e-02
nan
-1.164749251572159e-01
1.013418324205760e+00
nan
1.083981662212549e+03
8.548023024334913e+06
3.020607628504225e-03
5.336246205786662e+07
nan
0.000000000000000e+00
8.100601290447530e+01
nan
nan
nan
nan
nan
nan
nan
nan
nan
nan
nan
nan
1.093521880670171e-02
2147483647
2147483647
2147483647
2
0
-1
) PROP(
"model" "I0.MPA.sky130_fd_pr__pfet_01v8__model.3"
)
"I0.MNT.msky130_fd_pr__nfet_01v8" "bsim4" (
0.000000000000000e+00
0.000000000000000e+00
1.907240502461364e-05
5.987486338175040e-01
2.573106758112313e-01
0.000000000000000e+00
3.414379580062726e-01
2.573106758112313e-01
5.987486338175040e-01
5.578302814192116e-01
7.265069678020078e-02
3.903219949519800e-04
3.951028974707832e-06
9.288116654453029e-05
1.189724489918427e-02
0.000000000000000e+00
2.177269441720367e-14
2.518575029262831e-14
2.184581763569358e-13
-1.285872434989366e-14
-1.772578356916775e-13
-2.834161631536464e-14
-7.534001035508382e-14
1.350791207296295e-14
7.951659279475480e-14
-1.768449451263392e-14
-1.044534241202306e-13
1.095504312639097e-15
1.289757639853044e-13
-2.561784417771292e-14
-3.866474188162144e-14
-1.744692035708383e-15
-3.123452108838166e-14
7.164395500571148e-14
9.852540000000001e-15
9.852540000000001e-15
9.802418399999999e-20
1.987529983327518e-13
-3.006184349893660e-15
-1.674052956916775e-13
-3.866464385743744e-14
-1.744692035708383e-15
-3.123452108838166e-14
-6.548747035508382e-14
3.655372072962946e-15
7.951659279475480e-14
1.349125479870852e+04
1.907240506155707e-05
nan
nan
nan
-3.694360229608150e-14
4.907533435734798e-06
2.046527401490557e+01
8.500000000000001e-03
8.500000000000001e-03
0.000000000000000e+00
0.000000000000000e+00
0.000000000000000e+00
0.000000000000000e+00
0.000000000000000e+00
0.000000000000000e+00
0.000000000000000e+00
0.000000000000000e+00
0.000000000000000e+00
0.000000000000000e+00
0.000000000000000e+00
7.294060996806377e-21
2.105356585995526e-12
1.000502879857323e-12
1.703436131716177e-13
-1.322783299362379e-14
-2.926725361680337e-14
-1.278485265611906e-13
-6.009927994017851e-15
-4.082953013268100e-21
0.000000000000000e+00
0.000000000000000e+00
1.610803284763640e-13
-1.587372825161759e-14
0.000000000000000e+00
-2.336806443237298e-14
-1.218385357923735e-13
-7.912093812232661e-01
1.907240557617793e-05
-0.000000000000000e+00
-1.907240528192365e-05
-2.942542780999540e-13
2.942539294948328e-13
3.413073820394484e-19
-0.000000000000000e+00
9.288116654453029e-05
4.091835239829233e-02
nan
7.265069678020078e-02
1.846599790310306e-01
nan
9.878996014724069e+01
2.530986247889886e+05
2.278238530719903e-02
2.843641557851223e+08
nan
0.000000000000000e+00
4.827199622748473e+00
nan
nan
nan
nan
nan
nan
nan
nan
nan
nan
nan
nan
3.491379576376115e-02
2147483647
2147483647
2147483647
2
0
-1
) PROP(
"model" "I0.MNT.sky130_fd_pr__nfet_01v8__model.4"
)
"I0.MN3N.msky130_fd_pr__nfet_01v8" "bsim4" (
0.000000000000000e+00
0.000000000000000e+00
8.238683906296821e-05
5.987486338175040e-01
8.993915143666564e-01
0.000000000000000e+00
-3.006428805491524e-01
8.993915143666564e-01
5.987486338175040e-01
5.578302813009280e-01
7.265069044532260e-02
1.669369277858914e-03
7.432540386876755e-06
3.969386874790449e-04
4.758897961953553e-02
0.000000000000000e+00
6.820913018940487e-14
1.007430003164451e-13
8.643159600393960e-13
-3.955531392220123e-14
-7.092006264581598e-13
-1.155600196590349e-13
-2.897265169825865e-13
3.959201638374947e-14
3.179660334027026e-13
-6.783153280386563e-14
-4.144072728556572e-13
4.754161016881412e-17
5.159818918659327e-13
-1.016221606204444e-13
-1.601821702011523e-13
-8.424407171705142e-17
-1.247472988104756e-13
2.850137130833449e-13
3.941016000000000e-14
3.941016000000000e-14
3.920967360000000e-19
7.854952479426600e-13
-1.451539222012327e-16
-6.697904664581598e-13
-1.601817781044163e-13
-8.424407171705142e-17
-1.247472988104756e-13
-2.503163569825865e-13
1.818563837494700e-16
3.179660334027026e-13
1.091668917749414e+04
8.238684216755079e-05
nan
nan
nan
-3.104583347434811e-12
7.409802674096022e-05
2.026257223660464e+01
2.125000000000000e-03
2.125000000000000e-03
0.000000000000000e+00
0.000000000000000e+00
0.000000000000000e+00
0.000000000000000e+00
0.000000000000000e+00
0.000000000000000e+00
0.000000000000000e+00
0.000000000000000e+00
0.000000000000000e+00
0.000000000000000e+00
0.000000000000000e+00
2.956741650562387e-12
5.421424631918703e-12
1.000000000009203e-12
6.549477981977247e-13
2.288573637134946e-14
-1.166760004614187e-13
-5.611575341076554e-13
-7.315188402070060e-14
-1.763618737932374e-20
0.000000000000000e+00
0.000000000000000e+00
6.431991679971131e-13
-6.211452477503689e-14
0.000000000000000e+00
-9.307924553869376e-14
-4.880053976833825e-13
-7.912093812232661e-01
8.238684396633330e-05
-0.000000000000000e+00
-8.238683996235844e-05
-4.003974861757954e-12
1.047232262127870e-12
9.490829045842265e-19
-0.000000000000000e+00
3.969386874790449e-04
4.091835251657594e-02
nan
7.265069044532260e-02
8.267408239213339e-01
nan
2.246027859877400e+02
1.345435003307412e+05
9.841279880173556e-02
3.073972768070645e+08
nan
0.000000000000000e+00
1.108461436843309e+01
nan
nan
nan
nan
nan
nan
nan
nan
nan
nan
nan
nan
3.491379578048730e-02
2147483647
2147483647
2147483647
2
0
-1
) PROP(
"model" "I0.MN3P.sky130_fd_pr__nfet_01v8__model.4"
)
"I0.MN3P.msky130_fd_pr__nfet_01v8" "bsim4" (
0.000000000000000e+00
0.000000000000000e+00
8.238683906296821e-05
5.987486338175040e-01
8.993915143666564e-01
0.000000000000000e+00
-3.006428805491524e-01
8.993915143666564e-01
5.987486338175040e-01
5.578302813009280e-01
7.265069044532260e-02
1.669369277858914e-03
7.432540386876755e-06
3.969386874790449e-04
4.758897961953553e-02
0.000000000000000e+00
6.820913018940487e-14
1.007430003164451e-13
8.643159600393960e-13
-3.955531392220123e-14
-7.092006264581598e-13
-1.155600196590349e-13
-2.897265169825865e-13
3.959201638374947e-14
3.179660334027026e-13
-6.783153280386563e-14
-4.144072728556572e-13
4.754161016881412e-17
5.159818918659327e-13
-1.016221606204444e-13
-1.601821702011523e-13
-8.424407171705142e-17
-1.247472988104756e-13
2.850137130833449e-13
3.941016000000000e-14
3.941016000000000e-14
3.920967360000000e-19
7.854952479426600e-13
-1.451539222012327e-16
-6.697904664581598e-13
-1.601817781044163e-13
-8.424407171705142e-17
-1.247472988104756e-13
-2.503163569825865e-13
1.818563837494700e-16
3.179660334027026e-13
1.091668917749414e+04
8.238684216755079e-05
nan
nan
nan
-3.104583347434811e-12
7.409802674096022e-05
2.026257223660464e+01
2.125000000000000e-03
2.125000000000000e-03
0.000000000000000e+00
0.000000000000000e+00
0.000000000000000e+00
0.000000000000000e+00
0.000000000000000e+00
0.000000000000000e+00
0.000000000000000e+00
0.000000000000000e+00
0.000000000000000e+00
0.000000000000000e+00
0.000000000000000e+00
2.956741650562387e-12
5.421424631918703e-12
1.000000000009203e-12
6.549477981977247e-13
2.288573637134946e-14
-1.166760004614187e-13
-5.611575341076554e-13
-7.315188402070060e-14
-1.763618737932374e-20
0.000000000000000e+00
0.000000000000000e+00
6.431991679971131e-13
-6.211452477503689e-14
0.000000000000000e+00
-9.307924553869376e-14
-4.880053976833825e-13
-7.912093812232661e-01
8.238684396633330e-05
-0.000000000000000e+00
-8.238683996235844e-05
-4.003974861757954e-12
1.047232262127870e-12
9.490829045842265e-19
-0.000000000000000e+00
3.969386874790449e-04
4.091835251657594e-02
nan
7.265069044532260e-02
8.267408239213339e-01
nan
2.246027859877400e+02
1.345435003307412e+05
9.841279880173556e-02
3.073972768070645e+08
nan
0.000000000000000e+00
1.108461436843309e+01
nan
nan
nan
nan
nan
nan
nan
nan
nan
nan
nan
nan
3.491379578048730e-02
2147483647
2147483647
2147483647
2
0
-1
) PROP(
"model" "I0.MN3P.sky130_fd_pr__nfet_01v8__model.4"
)
"I0.MP2N.msky130_fd_pr__pfet_01v8" "bsim4" (
0.000000000000000e+00
0.000000000000000e+00
-8.238379964664072e-05
-1.116444695545249e+00
-9.006084856333436e-01
0.000000000000000e+00
-2.158362099119058e-01
-9.006084856333436e-01
-1.116444695545249e+00
-1.034541476030349e+00
-1.230815199599282e-01
1.075746677190514e-03
2.679117245127062e-06
2.896689820968367e-04
1.379449956602958e-02
0.000000000000000e+00
6.017269918632285e-14
8.545425613630658e-14
7.911292719941880e-13
-1.189903492176943e-14
-6.876675405875212e-13
-9.156269648489744e-14
-2.581489266195664e-13
1.195931831077204e-14
3.152231550646477e-13
-6.903354675585329e-14
-3.808894418115602e-13
9.547251225046688e-18
4.843001880838938e-13
-1.034202935235587e-13
-1.520909035630615e-13
-6.983064022765551e-17
-1.118558025610203e-13
2.640165367643094e-13
1.184480022744011e-14
1.180010925301574e-14
0.000000000000000e+00
7.674843625137323e-13
-9.892566875369462e-17
-6.758227403600812e-13
-1.520909035630615e-13
-6.983064022765551e-17
-1.118558025610203e-13
-2.463488173665507e-13
1.592090577563034e-16
3.152231550646477e-13
1.093186390402263e+04
-8.238379973698969e-05
nan
nan
nan
9.034941410553220e-14
7.419554912185093e-05
1.305774535533187e+01
2.125000000000000e-03
2.125000000000000e-03
0.000000000000000e+00
-0.000000000000000e+00
-0.000000000000000e+00
-0.000000000000000e+00
-0.000000000000000e+00
-0.000000000000000e+00
-0.000000000000000e+00
-0.000000000000000e+00
-0.000000000000000e+00
-0.000000000000000e+00
-0.000000000000000e+00
4.777740740056265e-18
3.562357148450387e-12
1.000000000020669e-12
-6.518241230549713e-13
1.342843197362532e-15
1.067916054828580e-13
5.436896743747509e-13
6.366272242679481e-14
1.495996694581635e-20
-3.389592351194314e-16
-1.706342338500734e-15
-6.380772756338109e-13
6.277850536977187e-14
0.000000000000000e+00
9.527183327604993e-14
4.800269369879891e-13
-2.561137635839391e-01
-8.238380153820613e-05
-0.000000000000000e+00
8.238380054724823e-05
9.909578997326798e-13
9.909524983471390e-13
6.236417042216256e-19
-0.000000000000000e+00
2.896689820968367e-04
-8.190321951490076e-02
nan
-1.230815199599282e-01
7.775269656734154e-01
nan
4.015302723862296e+02
3.732572741334332e+05
2.456234779706183e-02
2.164126739464263e+08
nan
0.000000000000000e+00
3.075035319490056e+01
nan
nan
nan
nan
nan
nan
nan
nan
nan
nan
nan
nan
1.086074628551618e-02
2147483647
2147483647
2147483647
2
0
-1
) PROP(
"model" "I0.MP2P.sky130_fd_pr__pfet_01v8__model.4"
)
"I0.MP2P.msky130_fd_pr__pfet_01v8" "bsim4" (
0.000000000000000e+00
0.000000000000000e+00
-8.238379964664072e-05
-1.116444695545249e+00
-9.006084856333436e-01
0.000000000000000e+00
-2.158362099119058e-01
-9.006084856333436e-01
-1.116444695545249e+00
-1.034541476030349e+00
-1.230815199599282e-01
1.075746677190514e-03
2.679117245127062e-06
2.896689820968367e-04
1.379449956602958e-02
0.000000000000000e+00
6.017269918632285e-14
8.545425613630658e-14
7.911292719941880e-13
-1.189903492176943e-14
-6.876675405875212e-13
-9.156269648489744e-14
-2.581489266195664e-13
1.195931831077204e-14
3.152231550646477e-13
-6.903354675585329e-14
-3.808894418115602e-13
9.547251225046688e-18
4.843001880838938e-13
-1.034202935235587e-13
-1.520909035630615e-13
-6.983064022765551e-17
-1.118558025610203e-13
2.640165367643094e-13
1.184480022744011e-14
1.180010925301574e-14
0.000000000000000e+00
7.674843625137323e-13
-9.892566875369462e-17
-6.758227403600812e-13
-1.520909035630615e-13
-6.983064022765551e-17
-1.118558025610203e-13
-2.463488173665507e-13
1.592090577563034e-16
3.152231550646477e-13
1.093186390402263e+04
-8.238379973698969e-05
nan
nan
nan
9.034941410553220e-14
7.419554912185093e-05
1.305774535533187e+01
2.125000000000000e-03
2.125000000000000e-03
0.000000000000000e+00
-0.000000000000000e+00
-0.000000000000000e+00
-0.000000000000000e+00