HEADER
"PSFversion" "1.00"
"simulator" "spectre"
"version" "25.1.0.235.isr5"
"date" "9:14:46 AM, Sun Jul 19, 2026"
"design" "// tb_fdota_stb_cm.scs (SKY130) -- fully-differential two-stage OTA with"
"analysis type" "stb"
"analysis name" "stb"
"analysis description" "Stability Analysis `stb': freq = (1 mHz -> 10 GHz)"
"xVecSorted" "ascending"
"tolerance.relative" 1.000000000000000e-03
"operating point producer" "stb"
"probe" "FDPRB.IPRB_CM"
"marginFilename" "stb.margin.stb"
TYPE
"sweep" FLOAT DOUBLE PROP(
"key" "sweep"
)
"LOOPGAIN" COMPLEX DOUBLE PROP(
"key" "gain"
)
"IMPEDANCE" COMPLEX DOUBLE PROP(
"key" "advprobe"
)
"ADMITTANCE" COMPLEX DOUBLE PROP(
"key" "advprobe"
)
SWEEP
"freq" "sweep" PROP(
"sweep_direction" 0
"units" "Hz"
"plot" 0
"grid" 3
)
TRACE
"loopGain" "LOOPGAIN"
"ZL" "IMPEDANCE"
"ZG" "IMPEDANCE"
"YL" "ADMITTANCE"
"YG" "ADMITTANCE"
VALUE
"freq" 1.000000000000000e-03
"loopGain" (-5.472850981050682e+04 1.564619122416366e+00)
"ZL" (8.179100596804276e+09 -3.477644855212079e+05)
"ZG" (1.000000000000002e+05 -5.024257966535192e-05)
"YL" (1.654100678395692e+00 -6.909210526908570e-07)
"YG" (9.999999999999977e-06 5.024257966471084e-15)
"freq" 1.122018454301963e-03
"loopGain" (-5.472850979925773e+04 1.755531528954740e+00)
"ZL" (8.179100593049994e+09 -3.901981703300634e+05)
"ZG" (1.000000000000003e+05 -5.637310157457094e-05)
"YL" (1.654100678395639e+00 -7.752261715848662e-07)
"YG" (9.999999999999970e-06 5.637310157555878e-15)
"freq" 1.258925411794167e-03
"loopGain" (-5.472850978467730e+04 1.969738772071439e+00)
"ZL" (8.179100588230172e+09 -4.378095476872103e+05)
"ZG" (1.000000000000003e+05 -6.325166029427741e-05)
"YL" (1.654100678395555e+00 -8.698180707760383e-07)
"YG" (9.999999999999965e-06 6.325166029403525e-15)
"freq" 1.412537544622754e-03
"loopGain" (-5.472850976598907e+04 2.210083251650052e+00)
"ZL" (8.179100582181856e+09 -4.912303916125539e+05)
"ZG" (1.000000000011464e+05 -7.096959907056908e-05)
"YL" (1.654100678395439e+00 -9.759519272959798e-07)
"YG" (9.999999999999953e-06 7.096953011522504e-15)
"freq" 1.584893192461113e-03
"loopGain" (-5.472850974221554e+04 2.479754192787858e+00)
"ZL" (8.179100574206954e+09 -5.511695641432636e+05)
"ZG" (9.999999999885462e+04 -7.962904559303138e-05)
"YL" (1.654100678395302e+00 -1.095036072937569e-06)
"YG" (9.999999999999943e-06 7.962912248250552e-15)
"freq" 1.778279410038922e-03
"loopGain" (-5.472850971412141e+04 2.782329965063058e+00)
"ZL" (8.179100564906676e+09 -6.184224217390184e+05)
"ZG" (1.000000000000008e+05 -8.934534492607362e-05)
"YL" (1.654100678395141e+00 -1.228650681962207e-06)
"YG" (9.999999999999925e-06 8.934534492533896e-15)
"freq" 1.995262314968878e-03
"loopGain" (-5.472850967716447e+04 3.121825564631108e+00)
"ZL" (8.179100552819220e+09 -6.938813687215928e+05)
"ZG" (1.000000000011470e+05 -1.002472239868533e-04)
"YL" (1.654100678394958e+00 -1.378568739052175e-06)
"YG" (9.999999999999903e-06 1.002471258123494e-14)
"freq" 2.238721138568338e-03
"loopGain" (-5.472850963105710e+04 3.502745891676883e+00)
"ZL" (8.179100537483949e+09 -7.785476993332433e+05)
"ZG" (1.000000000000013e+05 -1.124791251523717e-04)
"YL" (1.654100678394661e+00 -1.546779565740049e-06)
"YG" (9.999999999999874e-06 1.124791251524680e-14)
"freq" 2.511886431509578e-03
"loopGain" (-5.472850957334390e+04 3.930145527071143e+00)
"ZL" (8.179100518276402e+09 -8.735448841527363e+05)
"ZG" (9.999999999885554e+04 -1.262035316431593e-04)
"YL" (1.654100678394337e+00 -1.735515217497220e-06)
"YG" (9.999999999999848e-06 1.262036541449873e-14)
"freq" 2.818382931264451e-03
"loopGain" (-5.472850949927099e+04 4.409695803417631e+00)
"ZL" (8.179100493897210e+09 -9.801334777324402e+05)
"ZG" (9.999999999885597e+04 -1.416026924622573e-04)
"YL" (1.654100678393931e+00 -1.947280101753358e-06)
"YG" (9.999999999999804e-06 1.416028289514685e-14)
"freq" 3.162277660168376e-03
"loopGain" (-5.472850940827233e+04 4.947760061155961e+00)
"ZL" (8.179100463709071e+09 -1.099727845665807e+06)
"ZG" (9.999999999885651e+04 -1.588808316702679e-04)
"YL" (1.654100678393374e+00 -2.184884209861578e-06)
"YG" (9.999999999999753e-06 1.588809872655603e-14)
"freq" 3.548133892335751e-03
"loopGain" (-5.472850929245586e+04 5.551478084327390e+00)
"ZL" (8.179100425423812e+09 -1.233914931771268e+06)
"ZG" (9.999999999885718e+04 -1.782672273543669e-04)
"YL" (1.654100678392726e+00 -2.451480403976825e-06)
"YG" (9.999999999999686e-06 1.782673997505524e-14)
"freq" 3.981071705534968e-03
"loopGain" (-5.472850914631898e+04 6.228860842598009e+00)
"ZL" (8.179100377245003e+09 -1.384475316334394e+06)
"ZG" (1.000000000000039e+05 -2.000193145059934e-04)
"YL" (1.654100678391902e+00 -2.750606253620432e-06)
"YG" (9.999999999999604e-06 2.000193123217750e-14)
"freq" 4.466835921509626e-03
"loopGain" (-5.472850896309477e+04 6.988896791319027e+00)
"ZL" (8.179100316734969e+09 -1.553406842992390e+06)
"ZG" (1.000000000011509e+05 -2.244255772389310e-04)
"YL" (1.654100678390871e+00 -3.086230977078842e-06)
"YG" (9.999999999999503e-06 2.244253596433875e-14)
"freq" 5.011872336272717e-03
"loopGain" (-5.472850873201052e+04 7.841671141961474e+00)
"ZL" (8.179100240345977e+09 -1.742951128598481e+06)
"ZG" (1.000000000011523e+05 -2.518096417366395e-04)
"YL" (1.654100678389521e+00 -3.462808110518272e-06)
"YG" (9.999999999999369e-06 2.518093951357540e-14)
"freq" 5.623413251903483e-03
"loopGain" (-5.472850844042758e+04 8.798499686865458e+00)
"ZL" (8.179100143841833e+09 -1.955623308079664e+06)
"ZG" (9.999999999886197e+04 -2.825345138049425e-04)
"YL" (1.654100678387860e+00 -3.885334603704553e-06)
"YG" (9.999999999999208e-06 2.825347883122291e-14)
"freq" 6.309573444801923e-03
"loopGain" (-5.472850807518134e+04 9.872078953129337e+00)
"ZL" (8.179100023089884e+09 -2.194245409019477e+06)
"ZG" (1.000000000000100e+05 -3.170092508476098e-04)
"YL" (1.654100678385765e+00 -4.359417126489611e-06)
"YG" (9.999999999999005e-06 3.170092464734011e-14)
"freq" 7.079457843841368e-03
"loopGain" (-5.472850761377510e+04 1.107665467428610e+01)
"ZL" (8.179099870693186e+09 -2.461983796321314e+06)
"ZG" (1.000000000011584e+05 -3.556905774398207e-04)
"YL" (1.654100678383106e+00 -4.891346465914341e-06)
"YG" (9.999999999998751e-06 3.556902247342250e-14)
"freq" 7.943282347242802e-03
"loopGain" (-5.472850703298517e+04 1.242821082451585e+01)
"ZL" (8.179099678738269e+09 -2.762391188809915e+06)
"ZG" (1.000000000011617e+05 -3.990913826419229e-04)
"YL" (1.654100678379793e+00 -5.488181001130865e-06)
"YG" (9.999999999998424e-06 3.990909961761721e-14)
"freq" 8.912509381337440e-03
"loopGain" (-5.472850630223262e+04 1.394468171287063e+01)
"ZL" (8.179099437268564e+09 -3.099453800378669e+06)
"ZG" (1.000000000023118e+05 -4.477883353556456e-04)
"YL" (1.654100678375635e+00 -6.157840363804601e-06)
"YG" (9.999999999998015e-06 4.477874626689403e-14)
"freq" 9.999999999999981e-03
"loopGain" (-5.472850538260225e+04 1.564618995839662e+01)
"ZL" (8.179099133232533e+09 -3.477644233043312e+06)
"ZG" (1.000000000023170e+05 -5.024267808264272e-04)
"YL" (1.654100678370389e+00 -6.909210526814927e-06)
"YG" (9.999999999997500e-06 5.024257967385039e-14)
"freq" 1.122018454301961e-02
"loopGain" (-5.472850422443760e+04 1.755531350133461e+01)
"ZL" (8.179098750474195e+09 -3.901980824418670e+06)
"ZG" (1.000000000034694e+05 -5.637326808524535e-04)
"YL" (1.654100678363751e+00 -7.752261715716049e-06)
"YG" (9.999999999996853e-06 5.637310158848352e-14)
"freq" 1.258925411794165e-02
"loopGain" (-5.472850276606221e+04 1.969738519455767e+01)
"ZL" (8.179098268511484e+09 -4.378094235360476e+06)
"ZG" (1.000000000046235e+05 -6.325190808885602e-04)
"YL" (1.654100678355400e+00 -8.698180707573021e-06)
"YG" (9.999999999996035e-06 6.325166031234464e-14)
"freq" 1.412537544622751e-02
"loopGain" (-5.472850093116024e+04 2.210082894908553e+01)
"ZL" (8.179097661880475e+09 -4.912302162504900e+06)
"ZG" (1.000000000046338e+05 -7.096980815182005e-04)
"YL" (1.654100678344903e+00 -9.759519272695333e-06)
"YG" (9.999999999995010e-06 7.096953014100093e-14)
"freq" 1.584893192461110e-02
"loopGain" (-5.472849862031839e+04 2.479753688921578e+01)
"ZL" (8.179096898177822e+09 -5.511693164933347e+06)
"ZG" (1.000000000069387e+05 -7.962959041694665e-04)
"YL" (1.654100678331707e+00 -1.095036072900246e-05)
"YG" (9.999999999993712e-06 7.962912251897280e-14)
"freq" 1.778279410038919e-02
"loopGain" (-5.472849571114112e+04 2.782329253196717e+01)
"ZL" (8.179095936497359e+09 -6.184220718390725e+06)
"ZG" (1.000000000069550e+05 -8.934587084323991e-04)
"YL" (1.654100678315087e+00 -1.228650681909494e-05)
"YG" (9.999999999992088e-06 8.934534497677542e-14)
"freq" 1.995262314968875e-02
"loopGain" (-5.472849204504638e+04 3.121824558726793e+01)
"ZL" (8.179094725364851e+09 -6.938808743724185e+06)
"ZG" (1.000000000092674e+05 -1.002479122335458e-03)
"YL" (1.654100678189890e+00 -1.378568738814194e-05)
"YG" (9.999999999990036e-06 1.002471259617846e-13)
"freq" 2.238721138568334e-02
"loopGain" (-5.472848743464494e+04 3.502744470934579e+01)
"ZL" (8.179093201560490e+09 -7.785470011224411e+06)
"ZG" (1.000000000127312e+05 -1.124803370361188e-03)
"YL" (1.654100678163517e+00 -1.546779565451432e-05)
"YG" (9.999999999987456e-06 1.124791253411593e-13)
"freq" 2.511886431509574e-02
"loopGain" (-5.472848162974332e+04 3.930143520215595e+01)
"ZL" (8.179091282870992e+09 -8.735438978966402e+06)
"ZG" (1.000000000150556e+05 -1.262052628691387e-03)
"YL" (1.654100678130299e+00 -1.735515217142744e-05)
"YG" (9.999999999984207e-06 1.262036543867332e-13)
"freq" 2.818382931264447e-02
"loopGain" (-5.472847432289067e+04 4.409692969057561e+01)
"ZL" (8.179088867914765e+09 -9.801320847749434e+06)
"ZG" (1.000000000196804e+05 -1.416051867531364e-03)
"YL" (1.654100678088501e+00 -1.947280101312391e-05)
"YG" (9.999999999980118e-06 1.416028292648287e-13)
"freq" 3.162277660168371e-02
"loopGain" (-5.472846512327364e+04 4.947756057404764e+01)
"ZL" (8.179085827289590e+09 -1.099725878011394e+07)
"ZG" (1.000000000254617e+05 -1.588844090550328e-03)
"YL" (1.654100678035916e+00 -2.184884209305943e-05)
"YG" (9.999999999974966e-06 1.588809876766672e-13)
"freq" 3.548133892335745e-02
"loopGain" (-5.472845354297657e+04 5.551472429278788e+01)
"ZL" (8.179081999567824e+09 -1.233912152473622e+07)
"ZG" (1.000000000324024e+05 -1.782722868517220e-03)
"YL" (1.654100677969665e+00 -2.451480403267113e-05)
"YG" (9.999999999968484e-06 1.782674002959200e-13)
"freq" 3.981071705534961e-02
"loopGain" (-5.472843896324377e+04 6.228852854925788e+01)
"ZL" (8.179077180572684e+09 -1.384471390503183e+07)
"ZG" (1.000000000405058e+05 -2.000261690059142e-03)
"YL" (1.654100677886335e+00 -2.750606252702538e-05)
"YG" (9.999999999960324e-06 2.000193130523508e-13)
"freq" 4.466835921509617e-02
"loopGain" (-5.472842060861903e+04 6.988885508613909e+01)
"ZL" (8.179071113898330e+09 -1.553401297618011e+07)
"ZG" (1.000000000520682e+05 -2.244352492423467e-03)
"YL" (1.654100677781359e+00 -3.086230975876914e-05)
"YG" (9.999999999950053e-06 2.244253606310603e-13)
"freq" 5.011872336272707e-02
"loopGain" (-5.472839750127473e+04 7.841655204970522e+01)
"ZL" (8.179063476268560e+09 -1.742943295587188e+07)
"ZG" (1.000000000625112e+05 -2.518227130606992e-03)
"YL" (1.654100677649198e+00 -3.462808108926882e-05)
"YG" (9.999999999937119e-06 2.518093964809274e-13)
"freq" 5.623413251903472e-02
"loopGain" (-5.472836841028865e+04 8.798477175579058e+01)
"ZL" (8.179053861127052e+09 -1.955612243887598e+07)
"ZG" (1.000000000810094e+05 -2.825541551850051e-03)
"YL" (1.654100677482828e+00 -3.885334601575891e-05)
"YG" (9.999999999920837e-06 2.825347901563799e-13)
"freq" 6.309573444801911e-02
"loopGain" (-5.472833178777644e+04 9.872047155087066e+01)
"ZL" (8.179041756509565e+09 -2.194229780354606e+07)
"ZG" (1.000000001029877e+05 -3.170368759697308e-03)
"YL" (1.654100677273429e+00 -4.359417123616846e-05)
"YG" (9.999999999900339e-06 3.170092490155384e-13)
"freq" 7.079457843841354e-02
"loopGain" (-5.472828568240433e+04 1.107660975883311e+02)
"ZL" (8.179026517641777e+09 -2.461961720335786e+07)
"ZG" (1.000000001284568e+05 -3.557288934322574e-03)
"YL" (1.654100677009755e+00 -4.891346462006657e-05)
"YG" (9.999999999874533e-06 3.556902282547987e-13)
"freq" 7.943282347242786e-02
"loopGain" (-5.472822764018987e+04 1.242814738068044e+02)
"ZL" (8.179007333260603e+09 -2.762360005939580e+07)
"ZG" (1.000000001608683e+05 -3.991453274492704e-03)
"YL" (1.654100676677764e+00 -5.488180995779124e-05)
"YG" (9.999999999842043e-06 3.990910010701741e-13)
"freq" 8.912509381337422e-02
"loopGain" (-5.472815455946009e+04 1.394459209211200e+02)
"ZL" (8.178983180265618e+09 -3.099409752625959e+07)
"ZG" (1.000000002025313e+05 -4.478642124631785e-03)
"YL" (1.654100675947177e+00 -6.157840354243791e-05)
"YG" (9.999999999801146e-06 4.477874705208441e-13)
"freq" 9.999999999999962e-02
"loopGain" (-5.472806256816194e+04 1.564606336736352e+02)
"ZL" (8.178952775156428e+09 -3.477582014375253e+07)
"ZG" (1.000000002534674e+05 -5.025335693745352e-03)
"YL" (1.654100675421075e+00 -6.909210514158123e-05)
"YG" (9.999999999749662e-06 5.024258074316876e-13)
"freq" 1.122018454301959e-01
"loopGain" (-5.472794675846922e+04 1.755513468904448e+02)
"ZL" (8.178914498043019e+09 -3.901892939171057e+07)
"ZG" (1.000000003205795e+05 -5.638839598553788e-03)
"YL" (1.654100674758787e+00 -7.752261698790240e-05)
"YG" (9.999999999684838e-06 5.637310305423616e-13)
"freq" 1.258925411794162e-01
"loopGain" (-5.472780096119796e+04 1.969713261710953e+02)
"ZL" (8.178866310021309e+09 -4.377970095097100e+07)
"ZG" (1.000000004039015e+05 -6.327327960521395e-03)
"YL" (1.654100673820766e+00 -8.698180683701696e-05)
"YG" (9.999999999603235e-06 6.325166238102029e-13)
"freq" 1.412537544622748e-01
"loopGain" (-5.472761740748004e+04 2.210047217003456e+02)
"ZL" (8.178805644557917e+09 -4.912126809810951e+07)
"ZG" (1.000000005080598e+05 -7.100004439119765e-03)
"YL" (1.654100672458362e+00 -9.759519237002737e-05)
"YG" (9.999999999500504e-06 7.096953315576044e-13)
"freq" 1.584893192461107e-01
"loopGain" (-5.472738634202960e+04 2.479703293387344e+02)
"ZL" (8.178729274790527e+09 -5.511445476502617e+07)
"ZG" (1.000000006411295e+05 -7.967232597641647e-03)
"YL" (1.654100671136881e+00 -1.095036068127434e-04)
"YG" (9.999999999371172e-06 7.962912665113419e-13)
"freq" 1.778279410038915e-01
"loopGain" (-5.472709544364458e+04 2.782258068032787e+02)
"ZL" (8.178633131833147e+09 -6.183870853735904e+07)
"ZG" (1.000000008066152e+05 -8.940633243182051e-03)
"YL" (1.654100669264771e+00 -1.228650675178102e-04)
"YG" (9.999999999208350e-06 8.934535080878053e-13)
"freq" 1.995262314968871e-01
"loopGain" (-5.472672922280000e+04 3.121724007490772e+02)
"ZL" (8.178512097392109e+09 -6.938314553954346e+07)
"ZG" (1.000000010172054e+05 -1.003334210622117e-02)
"YL" (1.654100666753404e+00 -1.378568729238722e-04)
"YG" (9.999999999003373e-06 1.002471342311974e-12)
"freq" 2.238721138568329e-01
"loopGain" (-5.472626820090392e+04 3.502602440851027e+02)
"ZL" (8.178359730942941e+09 -7.784771964033449e+07)
"ZG" (1.000000012752962e+05 -1.126005157270866e-02)
"YL" (1.654100664012476e+00 -1.546779552359649e-04)
"YG" (9.999999998745320e-06 1.124791368184064e-12)
"freq" 2.511886431509568e-01
"loopGain" (-5.472568780913333e+04 3.929942899437410e+02)
"ZL" (8.178167920358363e+09 -8.734452985369585e+07)
"ZG" (1.000000016085178e+05 -1.263754453312864e-02)
"YL" (1.654100660276138e+00 -1.735515198573020e-04)
"YG" (9.999999998420455e-06 1.262036706349121e-12)
"freq" 2.818382931264440e-01
"loopGain" (-5.472495715325638e+04 4.409409587686601e+02)
"ZL" (8.177926456719825e+09 -9.799928133227871e+07)
"ZG" (1.000000020227599e+05 -1.418452202332879e-02)
"YL" (1.654100655471824e+00 -1.947280074772720e-04)
"YG" (9.999999998011467e-06 1.416028523611461e-12)
"freq" 3.162277660168364e-01
"loopGain" (-5.472403734437996e+04 4.947355777397004e+02)
"ZL" (8.177622493247021e+09 -1.099529159244759e+08)
"ZG" (1.000000025480115e+05 -1.592235771739828e-02)
"YL" (1.654100649585532e+00 -2.184884171873132e-04)
"YG" (9.999999997496583e-06 1.588810202750239e-12)
"freq" 3.548133892335737e-01
"loopGain" (-5.472287941790079e+04 5.550907030663313e+02)
"ZL" (8.177239857882724e+09 -1.233634292865556e+08)
"ZG" (1.000000032039929e+05 -1.787507542521485e-02)
"YL" (1.654100642128547e+00 -2.451480350324378e-04)
"YG" (9.999999996848388e-06 1.782674463740070e-12)
"freq" 3.981071705534953e-01
"loopGain" (-5.472142174311996e+04 6.228054229372293e+02)
"ZL" (8.176758199709408e+09 -1.384078926780137e+08)
"ZG" (1.000000040356826e+05 -2.007024234739300e-02)
"YL" (1.654100632748233e+00 -2.750606177866338e-04)
"YG" (9.999999996032353e-06 2.000193781641455e-12)
"freq" 4.466835921509609e-01
"loopGain" (-5.471958674969514e+04 6.987757457917838e+02)
"ZL" (8.176151908461370e+09 -1.552846969354136e+08)
"ZG" (1.000000050812411e+05 -2.253903985705629e-02)
"YL" (1.654100620896286e+00 -3.086230869958873e-04)
"YG" (9.999999995005029e-06 2.244254527020048e-12)
"freq" 5.011872336272697e-01
"loopGain" (-5.471727680182707e+04 7.840061857835918e+02)
"ZL" (8.175388760132019e+09 -1.742160359654964e+08)
"ZG" (1.000000063960770e+05 -2.531723702857428e-02)
"YL" (1.654100605909497e+00 -3.462807958818824e-04)
"YG" (9.999999993711704e-06 2.518095267668366e-12)
"freq" 5.623413251903461e-01
"loopGain" (-5.471436903296183e+04 8.796226634484822e+02)
"ZL" (8.174428216949561e+09 -1.954506448922825e+08)
"ZG" (1.000000080528428e+05 -2.844602005437119e-02)
"YL" (1.654100587188312e+00 -3.885334389632836e-04)
"YG" (9.999999992083511e-06 2.825349741477822e-12)
"freq" 6.309573444801898e-01
"loopGain" (-5.471070881034918e+04 9.868868397309355e+02)
"ZL" (8.173219285787939e+09 -2.192668037019281e+08)
"ZG" (1.000000101356978e+05 -3.197283664783482e-02)
"YL" (1.654100563742663e+00 -4.359416824949861e-04)
"YG" (9.999999990033723e-06 3.170095085766311e-12)
"freq" 7.079457843841340e-01
"loopGain" (-5.470610154750027e+04 1.107212002308486e+03)
"ZL" (8.171697838160552e+09 -2.459756113348737e+08)
"ZG" (1.000000127586026e+05 -3.595306349721737e-02)
"YL" (1.654100533831642e+00 -4.891346038729935e-04)
"YG" (9.999999987453203e-06 3.556905955508462e-12)
"freq" 7.943282347242770e-01
"loopGain" (-5.470030245528105e+04 1.242180613769208e+03)
"ZL" (8.169783254556070e+09 -2.759245239866803e+08)
"ZG" (1.000000160572406e+05 -4.045140671015830e-02)
"YL" (1.654100496363928e+00 -5.488180397489899e-04)
"YG" (9.999999984204522e-06 3.990915200748366e-12)
"freq" 8.912509381337405e-01
"loopGain" (-5.469300358628614e+04 1.393563606215989e+03)
"ZL" (8.167374213319359e+09 -3.095011340361443e+08)
"ZG" (1.000000202117981e+05 -4.554465931084914e-02)
"YL" (1.654100449363296e+00 -6.157839512064001e-04)
"YG" (9.999999980114671e-06 4.477882022614475e-12)
"freq" 9.999999999999942e-01
"loopGain" (-5.468381761934912e+04 1.563341478372179e+03)
"ZL" (8.164343428122071e+09 -3.471371419950734e+08)
"ZG" (1.000000254330198e+05 -5.132394563122127e-02)
"YL" (1.654100390083200e+00 -6.909209323874274e-04)
"YG" (9.999999974965857e-06 5.024268413585213e-12)
"freq" 1.122018454301957e+00
"loopGain" (-5.467225755938251e+04 1.753727190366187e+03)
"ZL" (8.160531092259364e+09 -3.893124377883658e+08)
"ZG" (1.000000320053332e+05 -5.789995448005406e-02)
"YL" (1.654100315513541e+00 -7.752260017238972e-04)
"YG" (9.999999968483882e-06 5.637324911110833e-12)
"freq" 1.258925411794160e+00
"loopGain" (-5.465771125030751e+04 1.967190754072014e+03)
"ZL" (8.155736703718837e+09 -4.365591521167273e+08)
"ZG" (1.000000402679291e+05 -6.540709167356006e-02)
"YL" (1.654100221501817e+00 -8.698178307893481e-04)
"YG" (9.999999960323558e-06 6.325186871783423e-12)
"freq" 1.412537544622746e+00
"loopGain" (-5.463940953584178e+04 2.206485285712340e+03)
"ZL" (8.149708929332593e+09 -4.894654660819913e+08)
"ZG" (1.000000506549290e+05 -7.401179124017800e-02)
"YL" (1.654100103190915e+00 -9.759515882953309e-04)
"YG" (9.999999950050321e-06 7.096982452654924e-12)
"freq" 1.584893192461104e+00
"loopGain" (-5.461638646507083e+04 2.474674072556736e+03)
"ZL" (8.142133066611485e+09 -5.486788577285014e+08)
"ZG" (1.000000637108615e+05 -8.392239327258635e-02)
"YL" (1.654099954365361e+00 -1.095035594222962e-03)
"YG" (9.999999937117081e-06 7.962953828546118e-12)
"freq" 1.778279410038912e+00
"loopGain" (-5.458742970726455e+04 2.775157908954959e+03)
"ZL" (8.132615621132646e+09 -6.149083171997398e+08)
"ZG" (1.000000801165262e+05 -9.540289676796543e-02)
"YL" (1.654099766945607e+00 -1.228650005829884e-03)
"YG" (9.999999920835107e-06 8.934593222974271e-12)
"freq" 1.995262314968867e+00
"loopGain" (-5.455101892856785e+04 3.111701522538618e+03)
"ZL" (8.120665450964429e+09 -6.889248565131669e+08)
"ZG" (1.000001007098104e+05 -1.087908431827220e-01)
"YL" (1.654099530716960e+00 -1.378567783627519e-03)
"YG" (9.999999900337320e-06 1.002479555718510e-11)
"freq" 2.238721138568325e+00
"loopGain" (-5.450524949870146e+04 3.488457301522879e+03)
"ZL" (8.105670916479736e+09 -7.715593653560861e+08)
"ZG" (1.000001265528777e+05 -1.245252476638025e-01)
"YL" (1.654099233900685e+00 -1.546778216777173e-03)
"YG" (9.999999874532141e-06 1.124802969323233e-11)
"freq" 2.511886431509564e+00
"loopGain" (-5.444773827284228e+04 3.909983651949194e+03)
"ZL" (8.086872453620846e+09 -8.636964890611768e+08)
"ZG" (1.000001589496592e+05 -1.431796397516212e-01)
"YL" (1.654098859745392e+00 -1.735513311762195e-03)
"YG" (9.999999842045354e-06 1.262053094567944e-11)
"freq" 2.818382931264435e+00
"loopGain" (-5.437550826901884e+04 4.381254177223204e+03)
"ZL" (8.063330189883752e+09 -9.662627405788417e+08)
"ZG" (1.000001995217691e+05 -1.655120748896989e-01)
"YL" (1.654098388906438e+00 -1.947277409954178e-03)
"YG" (9.999999801146943e-06 1.416051670833683e-11)
"freq" 3.162277660168358e+00
"loopGain" (-5.428484811461074e+04 4.907652177721295e+03)
"ZL" (8.033886393061166e+09 -1.080206440889522e+09)
"ZG" (1.000002502663360e+05 -1.925304610678054e-01)
"YL" (1.654097796211269e+00 -2.184880407871010e-03)
"YG" (9.999999749658930e-06 1.588842898341137e-11)
"freq" 3.548133892335731e+00
"loopGain" (-5.417114268556319e+04 5.494942856276845e+03)
"ZL" (7.997123150619033e+09 -1.206466374437010e+09)
"ZG" (1.000003136255548e+05 -2.255811775380626e-01)
"YL" (1.654097049891743e+00 -2.451475033384510e-03)
"YG" (9.999999684839399e-06 1.782720648164436e-11)
"freq" 3.981071705534945e+00
"loopGain" (-5.402867152685397e+04 6.149212729951532e+03)
"ZL" (7.951316557459306e+09 -1.345925240263288e+09)
"ZG" (1.000003925685975e+05 -2.664688804029536e-01)
"YL" (1.654096110300077e+00 -2.750598667203892e-03)
"YG" (9.999999603236536e-06 2.000259020195410e-11)
"freq" 4.466835921509600e+00
"loopGain" (-5.385037299761712e+04 6.876762105891347e+03)
"ZL" (7.894390144937530e+09 -1.499343194443887e+09)
"ZG" (1.000004906766921e+05 -3.176160593355642e-01)
"YL" (1.654094927614434e+00 -3.086220261361605e-03)
"YG" (9.999999500504750e-06 2.244346676572400e-11)
"freq" 5.011872336272687e+00
"loopGain" (-5.362757475235665e+04 7.683931997346500e+03)
"ZL" (7.823872494535019e+09 -1.667266227507396e+09)
"ZG" (1.000006122088290e+05 -3.822694065015135e-01)
"YL" (1.654093438431566e+00 -3.462792973525651e-03)
"YG" (9.999999371173300e-06 2.518225433494496e-11)
"freq" 5.623413251903450e+00
"loopGain" (-5.334969611711033e+04 8.576841711719588e+03)
"ZL" (7.736867132636114e+09 -1.849904191426272e+09)
"ZG" (1.000007621545745e+05 -4.647655648070754e-01)
"YL" (1.654091563833232e+00 -3.885313222167701e-03)
"YG" (9.999999208354985e-06 2.825533606325010e-11)
"freq" 6.309573444801886e+00
"loopGain" (-5.300393566730824e+04 9.561007872385666e+03)
"ZL" (7.630046901817903e+09 -2.046974579733456e+09)
"ZG" (1.000009462475229e+05 -5.708635288158603e-01)
"YL" (1.654089203970682e+00 -4.359386924869420e-03)
"YG" (9.999999003379390e-06 3.170354802726211e-11)
"freq" 7.079457843841326e+00
"loopGain" (-5.257496988955215e+04 1.064081106058783e+04)
"ZL" (7.499689929775251e+09 -2.257511599094074e+09)
"ZG" (1.000011709030536e+05 -7.081438806634931e-01)
"YL" (1.654086233243958e+00 -4.891303806557686e-03)
"YG" (9.999998745331242e-06 3.557272801952653e-11)
"freq" 7.943282347242755e+00
"loopGain" (-5.204470676836136e+04 1.181877441760608e+04)
"ZL" (7.341779202285109e+09 -2.479646745285544e+09)
"ZG" (1.000014430431136e+05 -8.864646848740599e-01)
"YL" (1.654082493007956e+00 -5.488120742948542e-03)
"YG" (9.999998420469185e-06 3.991433384640209e-11)
"freq" 8.912509381337388e+00
"loopGain" (-5.139216294237216e+04 1.309462296189281e+04)
"ZL" (7.152190908214035e+09 -2.710378082254749e+09)
"ZG" (1.000017697720252e+05 -1.118447198119004e+00)
"YL" (1.654077784514423e+00 -6.157755247805124e-03)
"YG" (9.999998011494171e-06 4.478613975752351e-11)
"freq" 9.999999999999924e+00
"loopGain" (-5.059356368409385e+04 1.446410798607821e+04)
"ZL" (6.926995131345133e+09 -2.945361018907430e+09)
"ZG" (1.000021578599201e+05 -1.419935862999050e+00)
"YL" (1.654071856582806e+00 -6.909090295915710e-03)
"YG" (9.999997496628440e-06 5.025302330334397e-11)
"freq" 1.122018454301955e+01
"loopGain" (-4.962279915445366e+04 1.591761509049605e+04)
"ZL" (6.662882138658791e+09 -3.178772165155828e+09)
"ZG" (1.000026130086156e+05 -1.810344464246838e+00)
"YL" (1.654064394171787e+00 -7.752091886927462e-03)
"YG" (9.999996848456128e-06 5.638785348893214e-11)
"freq" 1.258925411794157e+01
"loopGain" (-4.845239808360694e+04 1.743863406716910e+04)
"ZL" (6.357704037962171e+09 -3.403314878153961e+09)
"ZG" (1.000031389145965e+05 -2.312769748519575e+00)
"YL" (1.654054999402708e+00 -8.697940818201615e-03)
"YG" (9.999996032463835e-06 6.327249786328546e-11)
"freq" 1.412537544622743e+01
"loopGain" (-4.705518717734485e+04 1.900226003333140e+04)
"ZL" (6.011083504333289e+09 -3.610441570401186e+09)
"ZG" (1.000037362149942e+05 -2.953744790793504e+00)
"YL" (1.654043172478229e+00 -9.759180423670324e-03)
"YG" (9.999995005203570e-06 7.099896369299115e-11)
"freq" 1.584893192461101e+01
"loopGain" (-4.540676471473142e+04 2.057401348550565e+04)
"ZL" (5.624993165134547e+09 -3.790851554482852e+09)
"ZG" (1.000044015099620e+05 -3.762549764189076e+00)
"YL" (1.654028283262441e+00 -1.094988209480103e-02)
"YG" (9.999993711980379e-06 7.967069821438146e-11)
"freq" 1.778279410038909e+01
"loopGain" (-4.348880240513982e+04 2.210939215381974e+04)
"ZL" (5.204166126905702e+09 -3.935274393470649e+09)
"ZG" (1.000051266240330e+05 -4.770020189572619e+00)
"YL" (1.654009539670695e+00 -1.228583074239062e-02)
"YG" (9.999992083941904e-06 8.940407133530962e-11)
"freq" 1.995262314968863e+01
"loopGain" (-4.129297739460022e+04 2.355465121088493e+04)
"ZL" (4.756183875932611e+09 -4.035468360406224e+09)
"ZG" (1.000058984745239e+05 -6.007034548708573e+00)
"YL" (1.653985943054975e+00 -1.378473241779750e-02)
"YG" (9.999990034415299e-06 1.003300779765955e-10)
"freq" 2.238721138568321e+01
"loopGain" (-3.882503683356487e+04 2.484927782658938e+04)
"ZL" (4.291126221278400e+09 -4.085272261320338e+09)
"ZG" (1.000066996695291e+05 -7.502920393314191e+00)
"YL" (1.653956237878426e+00 -1.546644674902310e-02)
"YG" (9.999987454297212e-06 1.125962959914027e-10)
"freq" 2.511886431509559e+01
"loopGain" (-3.610817684697518e+04 2.593040134144622e+04)
"ZL" (3.820765457785368e+09 -4.081485245356038e+09)
"ZG" (1.000075098916327e+05 -9.284181929221178e+00)
"YL" (1.653918842448983e+00 -1.735324683002643e-02)
"YG" (9.999984206252608e-06 1.263691588161528e-10)
"freq" 2.818382931264430e+01
"loopGain" (-3.318471457012471e+04 2.673892902952417e+04)
"ZL" (3.357418559646432e+09 -4.024353961635729e+09)
"ZG" (1.000083078817084e+05 -1.137394476421251e+01)
"YL" (1.653871767167470e+00 -1.947010972628479e-02)
"YG" (9.999980117415276e-06 1.418366037028498e-10)
"freq" 3.162277660168353e+01
"loopGain" (-3.011511625778686e+04 2.722659249991392e+04)
"ZL" (2.912684035137100e+09 -3.917534298581386e+09)
"ZG" (1.000090736094162e+05 -1.379232915545361e+01)
"YL" (1.653812506453321e+00 -2.184504068242393e-02)
"YG" (9.999974970204597e-06 1.592111911701701e-10)
"freq" 3.548133892335724e+01
"loopGain" (-2.697392753460790e+04 2.736254510781458e+04)
"ZL" (2.496330389210969e+09 -3.767538411205707e+09)
"ZG" (1.000097901919084e+05 -1.655775953492152e+01)
"YL" (1.653737907954486e+00 -2.450943464407100e-02)
"YG" (9.999968490774071e-06 1.787338038934858e-10)
"freq" 3.981071705534938e+01
"loopGain" (-2.384296556589055e+04 2.713795096130205e+04)
"ZL" (2.115550377854513e+09 -3.582816496632758e+09)
"ZG" (1.000104451698363e+05 -1.968893094305819e+01)
"YL" (1.653644003051473e+00 -2.749847848341390e-02)
"YG" (9.999960334484420e-06 2.006780887880613e-10)
"freq" 4.466835921509592e+01
"loopGain" (-2.080299373212341e+04 2.656735122591928e+04)
"ZL" (1.774676160765701e+09 -3.372699770711815e+09)
"ZG" (1.000110310045260e+05 -2.320708600077925e+01)
"YL" (1.653525799334709e+00 -3.085159777951135e-02)
"YG" (9.999950067639429e-06 2.253558395534632e-10)
"freq" 5.011872336272678e+01
"loopGain" (-1.792562037363902e+04 2.568642777218803e+04)
"ZL" (1.475320889895718e+09 -3.146424391745126e+09)
"ZG" (1.000115448224674e+05 -2.713818169286443e+01)
"YL" (1.653377013885593e+00 -3.461295138737027e-02)
"YG" (9.999937144531566e-06 2.531236142559303e-10)
"freq" 5.623413251903440e+01
"loopGain" (-1.526708451590187e+04 2.454678171347676e+04)
"ZL" (1.216822297825824e+09 -2.912385969723168e+09)
"ZG" (1.000119876475462e+05 -3.151473149421755e+01)
"YL" (1.653189741691669e+00 -3.883197715491985e-02)
"YG" (9.999920878605059e-06 2.843909624146429e-10)
"freq" 6.309573444801875e+01
"loopGain" (-1.286495330362488e+04 2.320907935274941e+04)
"ZL" (9.968337963278970e+08 -2.677682416218180e+09)
"ZG" (1.000123633790346e+05 -3.637722389425797e+01)
"YL" (1.652954040221667e+00 -4.356399120966795e-02)
"YG" (9.999900406248901e-06 3.196307889844267e-10)
"freq" 7.079457843841314e+01
"loopGain" (-1.073787134377467e+04 2.173612168709650e+04)
"ZL" (8.119284709762641e+08 -2.447926233817338e+09)
"ZG" (1.000126777385942e+05 -4.177513641571336e+01)
"YL" (1.652657405324106e+00 -4.887084184689571e-02)
"YG" (9.999874641368121e-06 3.593925878967255e-10)
"freq" 7.943282347242742e+01
"loopGain" (-8.887751344484041e+03 2.018708376110701e+04)
"ZL" (6.581264722155683e+08 -2.227263373549485e+09)
"ZG" (1.000129373544526e+05 -4.776769585861258e+01)
"YL" (1.652284114852525e+00 -5.482161725365127e-02)
"YG" (9.999842218434490e-06 4.043195442148874e-10)
"freq" 8.912509381337372e+01