HEADER
"PSFversion" "1.00"
"simulator" "spectre"
"version" "25.1.0.235.isr5"
"date" "1:26:06 PM, Sun Jul 19, 2026"
"design" "// tb_fdota_stb_cm.scs (SKY130) -- fully-differential two-stage OTA with
"
"analysis type" "info"
"analysis name" "dcOpInfo"
"analysis description" "Circuit Information"
"xVecSorted" "unknown"
"tolerance.relative" 1.000000000000000e-03
"AnalysisName" "DC"
"AnalysisType" "dcOp"
"OpPointTemp.Value" 2.700000000000000e+01
"OpPointTemp.Units" "C"
TYPE
"bsim4" STRUCT(
"trise" FLOAT DOUBLE PROP(
"units" "C"
"description" "Temperature rise from ambient"
)
"dtemp" FLOAT DOUBLE PROP(
"units" "C"
"description" "Alias for trise"
)
"ids" FLOAT DOUBLE PROP(
"units" "A"
"description" "Resistive drain-to-source current"
)
"vgs" FLOAT DOUBLE PROP(
"units" "V"
"description" "Gate-source voltage"
)
"vds" FLOAT DOUBLE PROP(
"units" "V"
"description" "Drain-source voltage"
)
"vbs" FLOAT DOUBLE PROP(
"units" "V"
"description" "Bulk-source voltage"
)
"vgd" FLOAT DOUBLE PROP(
"units" "V"
"description" "Gate-drain voltage"
)
"vdb" FLOAT DOUBLE PROP(
"units" "V"
"description" "Drain-bulk voltage"
)
"vgb" FLOAT DOUBLE PROP(
"units" "V"
"description" "Gate-bulk voltage"
)
"vth" FLOAT DOUBLE PROP(
"units" "V"
"description" "Threshold voltage (alias=lv9)"
)
"vdsat" FLOAT DOUBLE PROP(
"units" "V"
"description" "Drain-source saturation voltage (alias=lv10)"
)
"gm" FLOAT DOUBLE PROP(
"units" "S"
"description" "Common-source transconductance (alias=lx7)"
)
"gds" FLOAT DOUBLE PROP(
"units" "S"
"description" "Common-source output conductance (alias=lx8)"
)
"gmbs" FLOAT DOUBLE PROP(
"units" "S"
"description" "Body-transconductance (alias=lx9)"
)
"betaeff" FLOAT DOUBLE PROP(
"units" "A/V^2"
"description" "Effective beta (alias LV21)"
)
"pro_Gamma" FLOAT DOUBLE PROP(
"description" "Gamma"
)
"cjd" FLOAT DOUBLE PROP(
"units" "F"
"description" "Drain-bulk junction capacitance (alias=lx29)"
)
"cjs" FLOAT DOUBLE PROP(
"units" "F"
"description" "Source-bulk junction capacitance (alias=lx28)"
)
"cgg" FLOAT DOUBLE PROP(
"units" "F"
"description" "Total gate capacitance, including intrinsic, overlap and fringing components (alias=lx82)"
)
"cgd" FLOAT DOUBLE PROP(
"units" "F"
"description" "Total gate-to-drain capacitance, including intrinsic, overlap, and fringing components (alias=lx83)"
)
"cgs" FLOAT DOUBLE PROP(
"units" "F"
"description" "Total gate-to-source capacitance, including intrinsic, overlap, and fringing components (alias=lx84)"
)
"cgb" FLOAT DOUBLE PROP(
"units" "F"
"description" "Total gate-to-bulk capacitance, including intrinsic and overlap components"
)
"cdg" FLOAT DOUBLE PROP(
"units" "F"
"description" "Total drain-to-gate capacitance, including intrinsic, overlap, and fringing components (alias=lx87)"
)
"cdd" FLOAT DOUBLE PROP(
"units" "F"
"description" "Drain capacitance, including intrinsic, overlap, and fringing components"
)
"cds" FLOAT DOUBLE PROP(
"units" "F"
"description" "Total drain-to-source capacitance (alias=lx86)"
)
"cdb" FLOAT DOUBLE PROP(
"units" "F"
"description" "Intrinsic drain-to-bulk capacitance"
)
"csg" FLOAT DOUBLE PROP(
"units" "F"
"description" "Total source-to-gate capacitance, including intrinsic, overlap, and fringing components"
)
"csd" FLOAT DOUBLE PROP(
"units" "F"
"description" "Total source-to-drain capacitance"
)
"css" FLOAT DOUBLE PROP(
"units" "F"
"description" "Source capacitance, including intrinsic, overlap, and fringing components"
)
"csb" FLOAT DOUBLE PROP(
"units" "F"
"description" "Intrinsic source-to-bulk capacitance"
)
"cbg" FLOAT DOUBLE PROP(
"units" "F"
"description" "Total bulk-to-gate capacitance, including intrinsic and overlap components (alias=lx88)"
)
"cbd" FLOAT DOUBLE PROP(
"units" "F"
"description" "Intrinsic bulk-to-drain capacitance"
)
"cbs" FLOAT DOUBLE PROP(
"units" "F"
"description" "Intrinsic bulk-to-source capacitance"
)
"cbb" FLOAT DOUBLE PROP(
"units" "F"
"description" "Bulk capacitance, including intrinsic and overlap components"
)
"covlgs" FLOAT DOUBLE PROP(
"units" "F/m"
"description" "Gate-source overlap and fringing capacitances (alias=lv36)"
)
"covlgd" FLOAT DOUBLE PROP(
"units" "F/m"
"description" "Gate-drain overlap and fringing capacitances (alias=lv37)"
)
"covlgb" FLOAT DOUBLE PROP(
"units" "F/m"
"description" "Gate-bulk overlap capacitances (alias=lv38)"
)
"cggbo" FLOAT DOUBLE PROP(
"units" "F"
"description" "CGGBO = dQg/dVg intrinsic gate capacitance (alias=lx18)"
)
"cgdbo" FLOAT DOUBLE PROP(
"units" "F"
"description" "CGDBO = -dQg/dVd intrinsic gate-to-drain capacitance (alias=lx19)"
)
"cgsbo" FLOAT DOUBLE PROP(
"units" "F"
"description" "CGSBO = -dQg/dVs intrinsic gate-to-source capacitance (alias=lx20)"
)
"cbgbo" FLOAT DOUBLE PROP(
"units" "F"
"description" "CBGBO = -dQb/dVg intrinsic bulk-to-gate capacitance (alias=lx21)"
)
"cbdbo" FLOAT DOUBLE PROP(
"units" "F"
"description" "CBDBO = -dQb/dVd intrinsic bulk-to-drain capacitance (alias=lx22)"
)
"cbsbo" FLOAT DOUBLE PROP(
"units" "F"
"description" "CBSBO = -dQb/dVs intrinsic bulk-to-source capacitance (alias=lx23)"
)
"cdgbo" FLOAT DOUBLE PROP(
"units" "F"
"description" "CDGBO = -dQd/dVg intrinsic drain-to-gate capacitance (alias=lx32)"
)
"cddbo" FLOAT DOUBLE PROP(
"units" "F"
"description" "CDDBO = dQd/dVd intrinsic drain capacitance (alias=lx33)"
)
"cdsbo" FLOAT DOUBLE PROP(
"units" "F"
"description" "CDSBO = -dQd/dVs intrinsic drain-to-source capacitance (alias=lx34)"
)
"ron" FLOAT DOUBLE PROP(
"units" "Ohm"
"description" "On-resistance, includes the parasitical rs and rd"
)
"id" FLOAT DOUBLE PROP(
"units" "A"
"description" "Resistive drain current"
)
"ig" FLOAT DOUBLE PROP(
"units" "A"
"description" "Total DC gate current"
)
"is" FLOAT DOUBLE PROP(
"units" "A"
"description" "Total DC source current"
)
"ib" FLOAT DOUBLE PROP(
"units" "A"
"description" "Total DC bulk current"
)
"ibulk" FLOAT DOUBLE PROP(
"units" "A"
"description" "Resistive bulk current"
)
"pwr" FLOAT DOUBLE PROP(
"units" "W"
"description" "Power at op point"
)
"gmoverid" FLOAT DOUBLE PROP(
"units" "1/V"
"description" "Gm/Ids"
)
"rdeff" FLOAT DOUBLE PROP(
"units" "Ohm"
"description" "Effective drain resistance"
)
"rseff" FLOAT DOUBLE PROP(
"units" "Ohm"
"description" "Effective source resistance"
)
"rgbd" FLOAT DOUBLE PROP(
"units" "Ohm"
"description" "Gate bias-dependent resistance"
)
"igidl" FLOAT DOUBLE PROP(
"units" "A"
"description" "Gate-induced drain leakage current (alias=lx70)"
)
"igisl" FLOAT DOUBLE PROP(
"units" "A"
"description" "Gate-induced source leakage current"
)
"igdt" FLOAT DOUBLE PROP(
"units" "A"
"description" "Gate Dielectric tunneling current (alias=lx71)"
)
"igd" FLOAT DOUBLE PROP(
"units" "A"
"description" "Gate-to-drain tunneling current (alias=lx39)"
)
"igs" FLOAT DOUBLE PROP(
"units" "A"
"description" "Gate-to-source tunneling current (alias=lx38)"
)
"igb" FLOAT DOUBLE PROP(
"units" "A"
"description" "Gate-to-bulk tunneling current (alias=lx66)"
)
"igbacc" FLOAT DOUBLE PROP(
"units" "A"
"description" "Gate-to-bulk tunneling current determined by ECB (alias=lx73)"
)
"igbinv" FLOAT DOUBLE PROP(
"units" "A"
"description" "Gate-to-bulk tunneling current determined by EVB (alias=lx74)"
)
"igcs" FLOAT DOUBLE PROP(
"units" "A"
"description" "Gate-to-channel (source side) tunneling current (alias=lx67)"
)
"igcd" FLOAT DOUBLE PROP(
"units" "A"
"description" "Gate-to-channel (drain side) tunneling current (alias=lx68)"
)
"isub" FLOAT DOUBLE PROP(
"units" "A"
"description" " Substrate current ( alias to LX69 )"
)
"gbs" FLOAT DOUBLE PROP(
"units" "S"
"description" "Bulk-source diode conductance (alias=lx11)"
)
"gbd" FLOAT DOUBLE PROP(
"units" "S"
"description" "Bulk-drain diode conductance (alias=lx10)"
)
"qg" FLOAT DOUBLE PROP(
"units" "Coul"
"description" "Total gate charge, including intrinsic, overlap and fringing components"
)
"qd" FLOAT DOUBLE PROP(
"units" "Coul"
"description" "Total drain charge, including intrinsic, overlap and fringing components"
)
"qs" FLOAT DOUBLE PROP(
"units" "Coul"
"description" "Total source charge, including intrinsic, overlap and fringing components"
)
"qb" FLOAT DOUBLE PROP(
"units" "Coul"
"description" "Total bulk charge, including intrinsic and overlap components"
)
"qjd" FLOAT DOUBLE PROP(
"units" "Coul"
"description" "Drain-bulk junction charge"
)
"qjs" FLOAT DOUBLE PROP(
"units" "Coul"
"description" "Source-bulk junction charge"
)
"qgdovl" FLOAT DOUBLE PROP(
"units" "Coul"
"description" "Gate-drain overlap and fringing charge"
)
"qgsovl" FLOAT DOUBLE PROP(
"units" "Coul"
"description" "Gate-source overlap and fringing charge"
)
"qgi" FLOAT DOUBLE PROP(
"units" "Coul"
"description" "Intrinsic gate charge"
)
"qdi" FLOAT DOUBLE PROP(
"units" "Coul"
"description" "Intrinsic drain charge"
)
"qinv" FLOAT DOUBLE PROP(
"units" "Coul"
"description" "Inversion charge"
)
"qsi" FLOAT DOUBLE PROP(
"units" "Coul"
"description" "Intrinsic source charge"
)
"qbi" FLOAT DOUBLE PROP(
"units" "Coul"
"description" "Intrinsic bulk charge"
)
"vfbeff" FLOAT DOUBLE PROP(
"units" "V"
"description" "Effective Flat-band voltage"
)
"ide" FLOAT DOUBLE PROP(
"units" "A"
"description" "Total DC drain current"
)
"ige" FLOAT DOUBLE PROP(
"units" "A"
"description" "Total DC gate current"
)
"ise" FLOAT DOUBLE PROP(
"units" "A"
"description" "Total DC source current"
)
"ibe" FLOAT DOUBLE PROP(
"units" "A"
"description" "Total DC bulk current"
)
"idb" FLOAT DOUBLE PROP(
"units" "A"
"description" "DC drain-bulk current"
)
"isb" FLOAT DOUBLE PROP(
"units" "A"
"description" "DC source-bulk current"
)
"vsb" FLOAT DOUBLE PROP(
"units" "V"
"description" "Source-bulk DC voltage"
)
"gmb" FLOAT DOUBLE PROP(
"units" "S"
"description" "DC bulk transconductance"
)
"vgt" FLOAT DOUBLE PROP(
"units" "V"
"description" "effective gate drive voltage including back bias and drain bias effects"
)
"vth_drive" FLOAT DOUBLE PROP(
"units" "V"
"description" "effective gate drive voltage including back bias and drain bias effects. Alias for Vgt"
)
"vdss" FLOAT DOUBLE PROP(
"units" "V"
"description" "Drain saturation voltage at actual bias"
)
"vsat_marg" FLOAT DOUBLE PROP(
"units" "V"
"description" "Vds margin"
)
"vdsat_marg" FLOAT DOUBLE PROP(
"units" "V"
"description" "Vds margin"
)
"self_gain" FLOAT DOUBLE PROP(
"description" "Transistor self gain"
)
"rout" FLOAT DOUBLE PROP(
"units" "Ohm"
"description" "AC output resistor. The parasitical rs and rd are excluded"
)
"beff" FLOAT DOUBLE PROP(
"units" "A/V^2"
"description" "Gain factor in saturation"
)
"fug" FLOAT DOUBLE PROP(
"units" "Hz"
"description" "Unity current gain frequency at actual bias"
)
"ft" FLOAT DOUBLE PROP(
"units" "Hz"
"description" "Unity current gain frequency at actual bias"
)
"rgate" FLOAT DOUBLE PROP(
"units" "Ohm"
"description" "MOS gate resistance"
)
"vearly" FLOAT DOUBLE PROP(
"units" "V"
"description" "Equivalent early voltage"
)
"Tk" FLOAT DOUBLE PROP(
"units" "K"
"description" "Absolute Device temperature including self-heating"
)
"Dtsh" FLOAT DOUBLE PROP(
"units" "K"
"description" "Device temperature rise due to self-heating"
)
"Iavl" FLOAT DOUBLE PROP(
"units" "A"
"description" "Weak avalanche current"
)
"vth0" FLOAT DOUBLE PROP(
"units" "V"
"description" "Zero-bias threshold voltage, excluding back-bias (body effect) and drain-bias effect (DIBL)"
)
"go" FLOAT DOUBLE PROP(
"units" "S"
"description" "Common-source output conductance"
)
"co" FLOAT DOUBLE PROP(
"units" "F"
"description" "Output Drain-Source capacitance"
)
"cm" FLOAT DOUBLE PROP(
"units" "F"
"description" "Capacitance element 1 for QS model"
)
"cmb" FLOAT DOUBLE PROP(
"units" "F"
"description" "Capacitance element 2 for QS model"
)
"cmx" FLOAT DOUBLE PROP(
"units" "F"
"description" "Capacitance element 3 for QS model"
)
"tau1" FLOAT DOUBLE PROP(
"units" "s"
"description" "Time constant related to NQS first frequency pole"
)
"fqslim" FLOAT DOUBLE PROP(
"units" "Hz"
"description" "QS model frequency limit"
)
"gmoveri" FLOAT DOUBLE PROP(
"units" "1/V"
"description" "Gm/Ids"
)
"ueff" FLOAT DOUBLE PROP(
"description" "ueff"
)
"OPdef" INT LONG PROP(
"units" ""
"description" "1: Device Physics notation. 2: Circuit Simulator notation"
)
"Ctype" INT LONG PROP(
"units" ""
"description" "Flag for channel type of MOSFET. 1: NMOS. -1: PMOS"
)
"SDint" INT LONG PROP(
"units" ""
"description" "Flag for source-drain interchange. 1: No S-D interchange, -1: S-D interchange"
)
"region" INT BYTE PROP(
"description" "Estimated operating region. %Z outputs the number (0-4) in a rawfile"
)
"reversed" INT BYTE PROP(
"description" "Reverse mode indicator"
)
"SDop" INT BYTE PROP(
"description" "Operation mode related to channel type and drain-source voltage sign"
)
) PROP(
"key" "inst"
)
"capacitor" STRUCT(
"trise" FLOAT DOUBLE PROP(
"units" "C"
"description" "Temperature rise from ambient"
)
"v" FLOAT DOUBLE PROP(
"units" "V"
"description" "Voltage at operating point"
)
"cap" FLOAT DOUBLE PROP(
"units" "F"
"description" "Capacitance at operating point"
)
) PROP(
"key" "inst"
)
"iprobe" STRUCT(
"i" FLOAT DOUBLE PROP(
"units" "A"
"description" "current through iprobe"
)
) PROP(
"key" "inst"
)
"isource" STRUCT(
"i" FLOAT DOUBLE PROP(
"units" "A"
"description" "Current through the source"
)
"v" FLOAT DOUBLE PROP(
"units" "V"
"description" "Voltage across the source"
)
"pwr" FLOAT DOUBLE PROP(
"units" "W"
"description" "Power dissipation"
)
) PROP(
"key" "inst"
)
"resistor" STRUCT(
"trise" FLOAT DOUBLE PROP(
"units" "C"
"description" "Temperature rise from ambient"
)
"v" FLOAT DOUBLE PROP(
"units" "V"
"description" "Voltage at operating point"
)
"i" FLOAT DOUBLE PROP(
"units" "A"
"description" "Current through the resistor"
)
"res" FLOAT DOUBLE PROP(
"units" "Ohm"
"description" "Resistance at operating point"
)
"pwr" FLOAT DOUBLE PROP(
"units" "W"
"description" "Power dissipation"
)
) PROP(
"key" "inst"
)
"vsource" STRUCT(
"v" FLOAT DOUBLE PROP(
"units" "V"
"description" "Voltage across the source"
)
"i" FLOAT DOUBLE PROP(
"units" "A"
"description" "Current through the source"
)
"pwr" FLOAT DOUBLE PROP(
"units" "W"
"description" "Power dissipation"
)
) PROP(
"key" "inst"
)
VALUE
"I0.MPB.msky130_fd_pr__pfet_01v8" "bsim4" (
0.000000000000000e+00
0.000000000000000e+00
-9.590949972440441e-06
-1.130790374091771e+00
-1.130790374091771e+00
0.000000000000000e+00
0.000000000000000e+00
-1.130790374091771e+00
-1.130790374091771e+00
-1.050680766569852e+00
-1.170309490791665e-01
1.279333828484796e-04
1.181702628341514e-07
3.312810626288238e-05
1.759999461236699e-03
0.000000000000000e+00
1.414509533781820e-14
2.136356514231246e-14
3.786405144897739e-13
-2.949575813360660e-15
-3.430864222874503e-13
-3.260451638896289e-14
-1.245189220308827e-13
2.955683265689473e-15
1.541494975214795e-13
-3.258625875628627e-14
-1.852325815091749e-13
1.092151116246447e-17
2.340652910876753e-13
-4.884363108966281e-14
-6.888901094971627e-14
-1.702896349127714e-17
-4.512836632170442e-14
1.140344062349120e-13
2.961210469023231e-15
2.913509014030264e-15
0.000000000000000e+00
3.727657950067204e-13
-3.606679933039553e-17
-3.401252118184271e-13
-6.888901094971627e-14
-1.702896349127714e-17
-4.512836632170443e-14
-1.216054130168524e-13
4.217425165920820e-17
1.541494975214795e-13
1.179018113264164e+05
-9.590950150830788e-06
nan
nan
nan
1.783903983278532e-13
1.084535410895347e-05
1.333896884209548e+01
8.500000000000001e-03
8.500000000000001e-03
0.000000000000000e+00
-0.000000000000000e+00
-0.000000000000000e+00
-0.000000000000000e+00
-0.000000000000000e+00
-0.000000000000000e+00
-0.000000000000000e+00
-0.000000000000000e+00
-0.000000000000000e+00
-0.000000000000000e+00
-0.000000000000000e+00
1.558042991637444e-13
1.640590986788445e-12
1.000000000000007e-12
-2.809669551155241e-13
1.070544168807723e-14
4.827577009478644e-14
2.219857433326605e-13
1.927187476251155e-14
1.741428145159946e-21
-7.867692846268707e-18
-4.320604377073720e-16
-2.780500021902282e-13
2.997731624029425e-14
0.000000000000000e+00
4.535881912121317e-14
2.027138668287208e-13
-1.671478112452303e-01
-9.590952412411291e-06
-0.000000000000000e+00
9.590951103230519e-06
1.309180772382988e-12
1.153376339477646e-12
1.337310760200728e-19
-0.000000000000000e+00
3.312810626288238e-05
-8.010960752191898e-02
nan
-1.170309490791665e-01
1.013759425012605e+00
nan
1.082619093671904e+03
8.462365877982957e+06
2.988976659978823e-03
5.377456845641734e+07
nan
0.000000000000000e+00
8.116214843214763e+01
nan
nan
nan
nan
nan
nan
nan
nan
nan
nan
nan
nan
1.093461711781591e-02
2147483647
2147483647
2147483647
2
0
-1
) PROP(
"model" "I0.MPA.sky130_fd_pr__pfet_01v8__model.3"
)
"I0.MPA.msky130_fd_pr__pfet_01v8" "bsim4" (
0.000000000000000e+00
0.000000000000000e+00
-9.481533011649435e-06
-1.129932293631699e+00
-1.129932293631699e+00
0.000000000000000e+00
0.000000000000000e+00
-1.129932293631699e+00
-1.129932293631699e+00
-1.050680766328521e+00
-1.164990874092150e-01
1.268595839832149e-04
1.170374752176406e-07
3.285633257347216e-05
1.760092100936248e-03
0.000000000000000e+00
1.414815590522200e-14
2.136356515332978e-14
3.782350300509034e-13
-2.949496095796170e-15
-3.425594739647593e-13
-3.272605999034794e-14
-1.243404487738648e-13
2.955589923329453e-15
1.539279063620105e-13
-3.254304751147508e-14
-1.849650347275030e-13
1.089749739068573e-17
2.337329850879695e-13
-4.877884785785722e-14
-6.892954654953559e-14
-1.699132492396806e-17
-4.510141748522068e-14
1.140479553596802e-13
2.961209859730567e-15
2.913509013762423e-15
0.000000000000000e+00
3.723603111774104e-13
-3.598708203374773e-17
-3.395982641050287e-13
-6.892954654953559e-14
-1.699132492396806e-17
-4.510141748522068e-14
-1.214269397601024e-13
4.208090956703006e-17
1.539279063620105e-13
1.191718989158624e+05
-9.481533187809023e-06
nan
nan
nan
1.761596404958005e-13
1.071349054204612e-05
1.337964903221342e+01
8.500000000000001e-03
8.500000000000001e-03
0.000000000000000e+00
-0.000000000000000e+00
-0.000000000000000e+00
-0.000000000000000e+00
-0.000000000000000e+00
-0.000000000000000e+00
-0.000000000000000e+00
-0.000000000000000e+00
-0.000000000000000e+00
-0.000000000000000e+00
-0.000000000000000e+00
1.535735419274483e-13
1.640591003685480e-12
1.000000000000008e-12
-2.806447562127269e-13
1.061334620362393e-14
4.811694995252229e-14
2.219144600565808e-13
1.925973583278706e-14
1.721559800911618e-21
-7.867692535690646e-18
-4.317329600943630e-16
-2.777300167660434e-13
2.987308182851558e-14
0.000000000000000e+00
4.520221243529395e-14
2.026547225022339e-13
-1.671478112452303e-01
-9.481535447673368e-06
-0.000000000000000e+00
9.481534141581435e-06
1.306091934090996e-12
1.152518259947672e-12
1.322053084184642e-19
-0.000000000000000e+00
3.285633257347216e-05
-7.925152730317819e-02
nan
-1.164990874092150e-01
1.013433206222484e+00
nan
1.083922767022352e+03
8.544271808157338e+06
3.019210461677782e-03
5.338038062416601e+07
nan
0.000000000000000e+00
8.101281602360002e+01
nan
nan
nan
nan
nan
nan
nan
nan
nan
nan
nan
nan
1.093519267460828e-02
2147483647
2147483647
2147483647
2
0
-1
) PROP(
"model" "I0.MPA.sky130_fd_pr__pfet_01v8__model.3"
)
"I0.MNT.msky130_fd_pr__nfet_01v8" "bsim4" (
0.000000000000000e+00
0.000000000000000e+00
1.907248529941924e-05
5.987486338175040e-01
2.573309942348623e-01
0.000000000000000e+00
3.414176395826417e-01
2.573309942348623e-01
5.987486338175040e-01
5.578302814192787e-01
7.265069677984874e-02
3.903236511725488e-04
3.950680556478037e-06
9.288155600061632e-05
1.189724489918452e-02
0.000000000000000e+00
2.177247677429150e-14
2.518575029261706e-14
2.184575757592919e-13
-1.285783937334284e-14
-1.772579816400177e-13
-2.834175474593138e-14
-7.533928591952648e-14
1.350684990565990e-14
7.951675144899345e-14
-1.768431543512686e-14
-1.044531993908911e-13
1.095167891769372e-15
1.289758202522068e-13
-2.561778875308510e-14
-3.866509044887435e-14
-1.744178424086435e-15
-3.123459006118257e-14
7.164385893414335e-14
9.852540000000001e-15
9.852540000000001e-15
9.802418399999999e-20
1.987523977351079e-13
-3.005299373342835e-15
-1.674054416400177e-13
-3.866499242469034e-14
-1.744178424086435e-15
-3.123459006118257e-14
-6.548674591952648e-14
3.654309905659898e-15
7.951675144899345e-14
1.349226334140617e+04
1.907248533636267e-05
nan
nan
nan
-3.694361251226080e-14
4.907941614136039e-06
2.046527471616057e+01
8.500000000000001e-03
8.500000000000001e-03
0.000000000000000e+00
0.000000000000000e+00
0.000000000000000e+00
0.000000000000000e+00
0.000000000000000e+00
0.000000000000000e+00
0.000000000000000e+00
0.000000000000000e+00
0.000000000000000e+00
0.000000000000000e+00
0.000000000000000e+00
7.294864395730026e-21
2.105356585972974e-12
1.000502574370749e-12
1.703433519114881e-13
-1.322711616028751e-14
-2.926723136119623e-14
-1.278490043900044e-13
-6.010370378620650e-15
-4.082970184922043e-21
0.000000000000000e+00
0.000000000000000e+00
1.610802674043159e-13
-1.587365399095894e-14
0.000000000000000e+00
-2.336804217678973e-14
-1.218385712365673e-13
-7.912093812232661e-01
1.907248585102417e-05
-0.000000000000000e+00
-1.907248555674957e-05
-2.942746067397637e-13
2.942742581324026e-13
3.413088183320544e-19
-0.000000000000000e+00
9.288155600061632e-05
4.091835239822528e-02
nan
7.265069677984874e-02
1.846802974550136e-01
nan
9.879909185077609e+01
2.531209460507439e+05
2.278248119724784e-02
2.843661441992611e+08
nan
0.000000000000000e+00
4.827645662150665e+00
nan
nan
nan
nan
nan
nan
nan
nan
nan
nan
nan
nan
3.491379576376189e-02
2147483647
2147483647
2147483647
2
0
-1
) PROP(
"model" "I0.MNT.sky130_fd_pr__nfet_01v8__model.4"
)
"I0.MN3N.msky130_fd_pr__nfet_01v8" "bsim4" (
0.000000000000000e+00
0.000000000000000e+00
8.234753153174076e-05
5.987486338175040e-01
8.941076037925226e-01
0.000000000000000e+00
-2.953589699750186e-01
8.941076037925226e-01
5.987486338175040e-01
5.578302813083911e-01
7.265069048440599e-02
1.668735137227877e-03
7.445751645835420e-06
3.967898415817008e-04
4.758897961937230e-02
0.000000000000000e+00
6.831726506507748e-14
1.007430003218872e-13
8.643203909940492e-13
-3.955816107247564e-14
-7.092032317036794e-13
-1.155589982178942e-13
-2.897320629907615e-13
3.959557251899481e-14
3.179694598727218e-13
-6.783296940095510e-14
-4.144087293408767e-13
4.848501865604950e-17
5.159827820687611e-13
-1.016225377465404e-13
-1.601795986624111e-13
-8.589646517521978e-17
-1.247490102378034e-13
2.850145053653897e-13
3.941016000000000e-14
3.941016000000000e-14
3.920967360000000e-19
7.854996788973132e-13
-1.480010724756390e-16
-6.697930717036794e-13
-1.601792065656750e-13
-8.589646517521978e-17
-1.247490102378034e-13
-2.503219029907615e-13
1.854125189948093e-16
3.179694598727218e-13
1.085773413193193e+04
8.234753431041483e-05
nan
nan
nan
-2.778674848255745e-12
7.362755658050754e-05
2.026454352896620e+01
2.125000000000000e-03
2.125000000000000e-03
0.000000000000000e+00
0.000000000000000e+00
0.000000000000000e+00
0.000000000000000e+00
0.000000000000000e+00
0.000000000000000e+00
0.000000000000000e+00
0.000000000000000e+00
0.000000000000000e+00
0.000000000000000e+00
0.000000000000000e+00
2.630833151748150e-12
5.421424642827967e-12
1.000000000010779e-12
6.551568124850476e-13
2.231582992622483e-14
-1.166762541998220e-13
-5.607963882114504e-13
-7.279118762752801e-14
-1.762787591257126e-20
0.000000000000000e+00
0.000000000000000e+00
6.431999425232838e-13
-6.211549506912853e-14
0.000000000000000e+00
-9.307949926549371e-14
-4.880049481886615e-13
-7.912093812232661e-01
8.234753609862952e-05
-0.000000000000000e+00
-8.234753242584707e-05
-3.672782452008862e-12
1.041948351638273e-12
9.486356273255119e-19
-0.000000000000000e+00
3.967898415817008e-04
4.091835250911291e-02
nan
7.265069048440599e-02
8.214569133081167e-01
nan
2.241190972520872e+02
1.343047750671785e+05
9.836584477202340e-02
3.072789310171180e+08
nan
0.000000000000000e+00
1.105966731306280e+01
nan
nan
nan
nan
nan
nan
nan
nan
nan
nan
nan
nan
3.491379578036755e-02
2147483647
2147483647
2147483647
2
0
-1
) PROP(
"model" "I0.MN3P.sky130_fd_pr__nfet_01v8__model.4"
)
"I0.MN3P.msky130_fd_pr__nfet_01v8" "bsim4" (
0.000000000000000e+00
0.000000000000000e+00
8.242682183448912e-05
5.987486338175040e-01
9.047757816779713e-01
0.000000000000000e+00
-3.060271478604674e-01
9.047757816779713e-01
5.987486338175040e-01
5.578302812932254e-01
7.265069040560358e-02
1.670013864798118e-03
7.419258798432329e-06
3.970899815561510e-04
4.758897961970168e-02
0.000000000000000e+00
6.809948324276132e-14
1.007430003109171e-13
8.643115404427275e-13
-3.955248714517258e-14
-7.091980148141473e-13
-1.155610384834076e-13
-2.897209848130977e-13
3.958848541929450e-14
3.179625988956695e-13
-6.783009950186628e-14
-4.144058204822289e-13
4.660522810651966e-17
5.159809997349281e-13
-1.016217844808057e-13
-1.601847351474008e-13
-8.260350222843542e-17
-1.247455838164503e-13
2.850129224660796e-13
3.941016000000000e-14
3.941016000000000e-14
3.920967360000000e-19
7.854908283459915e-13
-1.423271451725780e-16
-6.697878548141472e-13
-1.601843430506648e-13
-8.260350222843542e-17
-1.247455838164503e-13
-2.503108248130977e-13
1.783254192944938e-16
3.179625988956695e-13
1.097671560714469e+04
8.242682530782650e-05
nan
nan
nan
-3.473338154134106e-12
7.457779529912231e-05
2.026056358392006e+01
2.125000000000000e-03
2.125000000000000e-03
0.000000000000000e+00
0.000000000000000e+00
0.000000000000000e+00
0.000000000000000e+00
0.000000000000000e+00
0.000000000000000e+00
0.000000000000000e+00
0.000000000000000e+00
0.000000000000000e+00
0.000000000000000e+00
0.000000000000000e+00
3.325496456891109e-12
5.421424620837429e-12
1.000000000007835e-12
6.547348294000593e-13
2.346586160283350e-14
-1.166757469646184e-13
-5.615249440382743e-13
-7.351884477623209e-14
-1.764462992194956e-20
0.000000000000000e+00
0.000000000000000e+00
6.431983940356693e-13
-6.211355513195757e-14
0.000000000000000e+00
-9.307899205368442e-14
-4.880058468500273e-13
-7.912093812232661e-01
8.242682711737753e-05
-0.000000000000000e+00
-8.242682273926360e-05
-4.378113935763920e-12
1.052616529353072e-12
9.495372342135574e-19
-0.000000000000000e+00
3.970899815561510e-04
4.091835252427856e-02
nan
7.265069040560358e-02
8.321250912723678e-01
nan
2.250917389687212e+02
1.347843534196836e+05
9.846055947025656e-02
3.075175433599719e+08
nan
0.000000000000000e+00
1.110984659745177e+01
nan
nan
nan
nan
nan
nan
nan
nan
nan
nan
nan
nan
3.491379578060919e-02
2147483647
2147483647
2147483647
2
0
-1
) PROP(
"model" "I0.MN3P.sky130_fd_pr__nfet_01v8__model.4"
)
"I0.MP2N.msky130_fd_pr__pfet_01v8" "bsim4" (
0.000000000000000e+00
0.000000000000000e+00
-8.231273807317522e-05
-1.116365489017697e+00
-9.058923962074774e-01
0.000000000000000e+00
-2.104730928102201e-01
-9.058923962074774e-01
-1.116365489017697e+00
-1.034540919495991e+00
-1.230310911502046e-01
1.075110256091611e-03
2.665125303981148e-06
2.894938261231334e-04
1.379455338631629e-02
0.000000000000000e+00
6.008260490639530e-14
8.545425614346249e-14
7.910523252223371e-13
-1.189438377315107e-14
-6.875673844763394e-13
-9.159055697284662e-14
-2.581096261477453e-13
1.195405980380109e-14
3.151775033963708e-13
-6.902193705242659e-14
-3.808398763414185e-13
8.591511174207819e-18
4.842360267879705e-13
-1.034047419577262e-13
-1.521028227331733e-13
-6.826754182422388e-17
-1.118461457080020e-13
2.640172359829995e-13
1.184479999205891e-14
1.179847033577264e-14
0.000000000000000e+00
7.674090548945056e-13
-9.591343737843435e-17
-6.757225844842805e-13
-1.521028227331733e-13
-6.826754182422388e-17
-1.118461457080020e-13
-2.463111558119727e-13
1.555894680284504e-16
3.151775033963708e-13
1.100549462225577e+04
-8.231273816352421e-05
nan
nan
nan
9.034944221420263e-14
7.456648361335362e-05
1.306128651844686e+01
2.125000000000000e-03
2.125000000000000e-03
0.000000000000000e+00
-0.000000000000000e+00
-0.000000000000000e+00
-0.000000000000000e+00
-0.000000000000000e+00
-0.000000000000000e+00
-0.000000000000000e+00
-0.000000000000000e+00
-0.000000000000000e+00
-0.000000000000000e+00
-0.000000000000000e+00
4.806236261104657e-18
3.562357159425241e-12
1.000000000017792e-12
-6.516986024597581e-13
9.415106854286564e-16
1.067613906912755e-13
5.439957010830539e-13
6.398043139836961e-14
1.494706215429061e-20
-3.310163768457119e-16
-1.706221428374116e-15
-6.380079104576546e-13
6.275021997489890e-14
0.000000000000000e+00
9.524243574513363e-14
4.800152547376221e-13
-2.561137635839391e-01
-8.231273997530848e-05
-0.000000000000000e+00
8.231273897906664e-05
9.962418384154511e-13
9.962364090723386e-13
6.231037380955486e-19
-0.000000000000000e+00
2.894938261231334e-04
-8.182456952170658e-02
nan
-1.230310911502046e-01
7.828613050572728e-01
nan
4.033995153944987e+02
3.752168794863815e+05
2.458836185425688e-02
2.163056806358298e+08
nan
0.000000000000000e+00
3.088512943550917e+01
nan
nan
nan
nan
nan
nan
nan
nan
nan
nan
nan
nan
1.086078865954187e-02
2147483647
2147483647
2147483647
2
0
-1
) PROP(
"model" "I0.MP2P.sky130_fd_pr__pfet_01v8__model.4"
)
"I0.MP2P.msky130_fd_pr__pfet_01v8" "bsim4" (
0.000000000000000e+00
0.000000000000000e+00
-8.245603828725427e-05
-1.116525269008611e+00
-8.952242183220287e-01
0.000000000000000e+00
-2.213010506865827e-01
-8.952242183220287e-01
-1.116525269008611e+00
-1.034542043134806e+00
-1.231328322586289e-01
1.076392824538100e-03
2.693534710810620e-06
2.898468432447057e-04
1.379444479264458e-02
0.000000000000000e+00
6.026491245565637e-14
8.545425612903212e-14
7.912075730761309e-13
-1.190379122408700e-14
-6.877694557577203e-13
-9.153432609432354e-14
-2.581889661540015e-13
1.196470967094124e-14
3.152696503557423e-13
-6.904539387268203e-14
-3.809398816645282e-13
1.054769912544138e-17
4.843654586068085e-13
-1.034361246414058e-13
-1.520787252576013e-13
-7.146614597968215e-17
-1.118656532048303e-13
2.640158446084113e-13
1.184480046682113e-14
1.180171361128414e-14
0.000000000000000e+00
7.675610589980257e-13
-1.020776128028552e-16
-6.759246552908993e-13
-1.520787252576013e-13
-7.146614597968215e-17
-1.118656532048303e-13
-2.463872525427173e-13
1.629960596570960e-16
3.152696503557423e-13
1.085698800133124e+04
-8.245603837760319e-05
nan
nan
nan
9.034938539556721e-14
7.381664250252102e-05
1.305414190272206e+01
2.125000000000000e-03
2.125000000000000e-03
0.000000000000000e+00
-0.000000000000000e+00
-0.000000000000000e+00
-0.000000000000000e+00