HEADER
"PSFversion" "1.00"
"simulator" "spectre"
"version" "25.1.0.235.isr5"
"date" "1:26:06 PM, Sun Jul 19, 2026"
"design" "// tb_fdota_stb_cm.scs (SKY130) -- fully-differential two-stage OTA with
"
"analysis type" "dc"
"analysis name" "dcOp"
"analysis description" "DC Analysis `dcOp'"
"xVecSorted" "unsorted"
"tolerance.relative" 1.000000000000000e-03
"reltol" 1.000000000000000e-03
"abstol(V)" 1.000000000000000e-06
"abstol(I)" 1.000000000000000e-12
"temp" 2.700000000000000e+01
"tnom" 2.700000000000000e+01
"tempeffects" "all"
"gmindc" 1.000000000000000e-12
TYPE
"LogicV" FLOAT DOUBLE PROP(
"key" "node"
)
"V" FLOAT DOUBLE PROP(
"units" "V"
"key" "node"
"tolerance" 1.000000000000000e-06
)
"I" FLOAT DOUBLE PROP(
"units" "A"
"key" "branch"
"tolerance" 1.000000000000000e-12
)
"MMF" FLOAT DOUBLE PROP(
"units" "A*turn"
"key" "node"
"tolerance" 1.000000000000000e-12
)
"Wb" FLOAT DOUBLE PROP(
"units" "Wb"
"key" "node"
"tolerance" 1.000000000000000e-09
)
"Temp" FLOAT DOUBLE PROP(
"units" "C"
"key" "node"
"tolerance" 1.000000000000000e-04
)
"Pwr" FLOAT DOUBLE PROP(
"units" "W"
"key" "node"
"tolerance" 1.000000000000000e-09
)
"U" FLOAT DOUBLE PROP(
"units" ""
"key" "node"
"tolerance" 1.000000000000000e-06
)
"V/Sec" FLOAT DOUBLE PROP(
"units" "V/s"
"key" "node"
"tolerance" 9.999999999999999e-05
)
"I/Sec" FLOAT DOUBLE PROP(
"units" "A/s"
"key" "node"
"tolerance" 1.000000000000000e-06
)
"1/Sec" FLOAT DOUBLE PROP(
"units" "1/s"
"key" "node"
"tolerance" 9.999999999999999e-05
)
"HOD" FLOAT DOUBLE PROP(
"units" ""
"key" "node"
"tolerance" 1.000000000000000e-02
)
"Q" FLOAT DOUBLE PROP(
"units" "Coul"
"key" "node"
"tolerance" 1.000000000000000e-15
)
"Efield" FLOAT DOUBLE PROP(
"units" "V/m"
"key" "node"
"tolerance" 1.000000000000000e-06
"sigtype" "optical"
)
VALUE
"vdd!" "V" 1.800000000000000e+00
"vin_dm" "V" 0.000000000000000e+00
"vin_cm" "V" 9.000000000000000e-01
"vcmref" "V" 9.000000000000000e-01
"srcp" "V" 9.000000000000000e-01
"srcn" "V" 9.000000000000000e-01
"inn" "V" 9.023878908389856e-01
"inp" "V" 8.970538018962613e-01
"voutp" "V" 9.047757816779713e-01
"voutn" "V" 8.941076037925226e-01
"outpi" "V" 9.047757816779713e-01
"outni" "V" 8.941076037925226e-01
"vbn" "V" 5.987486338175040e-01
"vcm_sense" "V" 8.994416927352470e-01
"I0.tail" "V" 2.305926804650733e-01
"I0.x1p" "V" 6.834747309913887e-01
"I0.x1n" "V" 6.836345109823027e-01
"I0.vcmfb" "V" 6.700677063683012e-01
"I0.netp" "V" 6.834747309913887e-01
"I0.netn" "V" 6.836345109823027e-01
"I0.ctail" "V" 2.573309942348623e-01
"I0.dumm" "V" 6.692096259082290e-01
"FDPRB.dmi" "V" 1.066817788544871e-02
"FDPRB.cmi" "V" 8.994416927352470e-01
"FDPRB.dmo" "V" 1.066817788544871e-02
"FDPRB.cmo" "V" 8.994416927352470e-01
"VCMR:p" "I" 0.000000000000000e+00
"VINC:p" "I" -5.583072647530432e-09
"VIND:p" "I" 2.667044471362177e-08
"VSUP:p" "I" -2.617610664706337e-04
"FDPRB.IPRB_CM:in" "I" -5.583072647529285e-09
"FDPRB.IPRB_DM:in" "I" 3.200456032679084e-08
END
