HEADER
"PSFversion" "1.00"
"simulator" "spectre"
"version" "25.1.0.235.isr5"
"date" "1:26:06 PM, Sun Jul 19, 2026"
"design" "// tb_fdota_stb_cm.scs (SKY130) -- fully-differential two-stage OTA with"
"analysis type" "stb"
"analysis name" "stb"
"analysis description" "Stability Analysis `stb': freq = (1 mHz -> 10 GHz)"
"xVecSorted" "ascending"
"tolerance.relative" 1.000000000000000e-03
"operating point producer" "stb"
"probe" "FDPRB.IPRB_CM"
"marginFilename" "stb.margin.stb"
TYPE
"sweep" FLOAT DOUBLE PROP(
"key" "sweep"
)
"LOOPGAIN" COMPLEX DOUBLE PROP(
"key" "gain"
)
"IMPEDANCE" COMPLEX DOUBLE PROP(
"key" "advprobe"
)
"ADMITTANCE" COMPLEX DOUBLE PROP(
"key" "advprobe"
)
SWEEP
"freq" "sweep" PROP(
"sweep_direction" 0
"units" "Hz"
"plot" 0
"grid" 3
)
TRACE
"loopGain" "LOOPGAIN"
"ZL" "IMPEDANCE"
"ZG" "IMPEDANCE"
"YL" "ADMITTANCE"
"YG" "ADMITTANCE"
VALUE
"freq" 1.000000000000000e-03
"loopGain" (-5.476913491196011e+04 1.566735318151703e+00)
"ZL" (8.185125345869657e+09 -3.482295637683793e+05)
"ZG" (9.999999999885255e+04 -2.063143839271010e-05)
"YL" (1.655347556881857e+00 -6.919099157908573e-07)
"YG" (9.999999999999975e-06 2.063440951528386e-15)
"freq" 1.122018454301963e-03
"loopGain" (-5.476913490035573e+04 1.757905939600431e+00)
"ZL" (8.185125342127569e+09 -3.907199967075658e+05)
"ZG" (1.000000000000003e+05 -2.314891018914808e-05)
"YL" (1.655347556881815e+00 -7.763356942318465e-07)
"YG" (9.999999999999972e-06 2.315218826979149e-15)
"freq" 1.258925411794167e-03
"loopGain" (-5.476913488574667e+04 1.972402904632625e+00)
"ZL" (8.185125337298362e+09 -4.383950465120850e+05)
"ZG" (1.000000000000004e+05 -2.597350491628944e-05)
"YL" (1.655347556881733e+00 -8.710629756613954e-07)
"YG" (9.999999999999964e-06 2.597718249622909e-15)
"freq" 1.412537544622754e-03
"loopGain" (-5.476913486702191e+04 2.213072457546516e+00)
"ZL" (8.185125331332238e+09 -4.918873321093841e+05)
"ZG" (1.000000000022959e+05 -2.914288947281039e-05)
"YL" (1.655347556881634e+00 -9.773487335512158e-07)
"YG" (9.999999999999952e-06 2.914687815158714e-15)
"freq" 1.584893192461113e-03
"loopGain" (-5.476913484320205e+04 2.483108136964594e+00)
"ZL" (8.185125323248015e+09 -5.519066634899582e+05)
"ZG" (9.999999999885292e+04 -3.269862721562685e-05)
"YL" (1.655347556881450e+00 -1.096603315333026e-06)
"YG" (9.999999999999940e-06 3.270333517149103e-15)
"freq" 1.778279410038922e-03
"loopGain" (-5.476913481438618e+04 2.786093152252632e+00)
"ZL" (8.185125313874682e+09 -6.192494607986916e+05)
"ZG" (1.000000000011485e+05 -3.668863758421573e-05)
"YL" (1.655347556881313e+00 -1.230409156852304e-06)
"YG" (9.999999999999921e-06 3.669374557972332e-15)
"freq" 1.995262314968878e-03
"loopGain" (-5.476913477768989e+04 3.126047930137386e+00)
"ZL" (8.185125301744277e+09 -6.948093218030076e+05)
"ZG" (1.000000000011487e+05 -4.116532867542074e-05)
"YL" (1.655347556881103e+00 -1.380541780330270e-06)
"YG" (9.999999999999899e-06 4.117105969807327e-15)
"freq" 2.238721138568338e-03
"loopGain" (-5.476913473115897e+04 3.507483463645440e+00)
"ZL" (8.185125286210777e+09 -7.795888797794693e+05)
"ZG" (9.999999999885361e+04 -4.618803863796783e-05)
"YL" (1.655347556880825e+00 -1.548993354465107e-06)
"YG" (9.999999999999870e-06 4.619468876465683e-15)
"freq" 2.511886431509578e-03
"loopGain" (-5.476913467299927e+04 3.935461170190103e+00)
"ZL" (8.185125266985319e+09 -8.747131078265317e+05)
"ZG" (9.999999999885392e+04 -5.182383068981990e-05)
"YL" (1.655347556880518e+00 -1.737999129300702e-06)
"YG" (9.999999999999840e-06 5.183129328493572e-15)
"freq" 2.818382931264451e-03
"loopGain" (-5.476913460077967e+04 4.415660053399988e+00)
"ZL" (8.185125243099054e+09 -9.814442463752187e+05)
"ZG" (1.000000000000020e+05 -5.814743351891808e-05)
"YL" (1.655347556880105e+00 -1.950067096635726e-06)
"YG" (9.999999999999798e-06 5.815566757646873e-15)
"freq" 3.162277660168376e-03
"loopGain" (-5.476913450826973e+04 4.954452059440395e+00)
"ZL" (8.185125212648451e+09 -1.101198552207312e+06)
"ZG" (1.000000000011503e+05 -6.524264605672495e-05)
"YL" (1.655347556879564e+00 -2.188011269551621e-06)
"YG" (9.999999999999742e-06 6.525173224372998e-15)
"freq" 3.548133892335751e-03
"loopGain" (-5.476913439289197e+04 5.558986630003436e+00)
"ZL" (8.185125174249616e+09 -1.235565091625206e+06)
"ZG" (9.999999999885561e+04 -7.320310990886758e-05)
"YL" (1.655347556878908e+00 -2.454989022656852e-06)
"YG" (9.999999999999670e-06 7.321364775352883e-15)
"freq" 3.981071705534968e-03
"loopGain" (-5.476913424646837e+04 6.237285569368893e+00)
"ZL" (8.185125125977256e+09 -1.386326826121960e+06)
"ZG" (1.000000000000041e+05 -8.213543135128524e-05)
"YL" (1.655347556878037e+00 -2.754542988528375e-06)
"YG" (9.999999999999587e-06 8.214706388747718e-15)
"freq" 4.466835921509626e-03
"loopGain" (-5.476913406255127e+04 6.998349490083197e+00)
"ZL" (8.185125065181170e+09 -1.555484271049580e+06)
"ZG" (1.000000000000052e+05 -9.215747281134885e-05)
"YL" (1.655347556877007e+00 -3.090648066295193e-06)
"YG" (9.999999999999481e-06 9.217052165030755e-15)
"freq" 5.011872336272717e-03
"loopGain" (-5.476913383034727e+04 7.852277244141533e+00)
"ZL" (8.185124988494690e+09 -1.745282041110737e+06)
"ZG" (1.000000000000066e+05 -1.034023837744528e-04)
"YL" (1.655347556875703e+00 -3.467764166133610e-06)
"YG" (9.999999999999342e-06 1.034170262367803e-14)
"freq" 5.623413251903483e-03
"loopGain" (-5.476913353885832e+04 8.810399929332974e+00)
"ZL" (8.185124892139483e+09 -1.958238635035995e+06)
"ZG" (1.000000000000083e+05 -1.160193832198456e-04)
"YL" (1.655347556874033e+00 -3.890895389565386e-06)
"YG" (9.999999999999172e-06 1.160358119301677e-14)
"freq" 6.309573444801923e-03
"loopGain" (-5.476913317289458e+04 9.885431244619607e+00)
"ZL" (8.185124770964704e+09 -2.197179853944669e+06)
"ZG" (9.999999999886277e+04 -1.301755795699474e-04)
"YL" (1.655347556871921e+00 -4.365656430846006e-06)
"YG" (9.999999999998954e-06 1.301943223507688e-14)
"freq" 7.079457843841368e-03
"loopGain" (-5.476913271058268e+04 1.109163619150513e+01)
"ZL" (8.185124618365568e+09 -2.465276297619921e+06)
"ZG" (1.000000000011608e+05 -1.460600950042851e-04)
"YL" (1.655347556869246e+00 -4.898347080544106e-06)
"YG" (9.999999999998688e-06 1.460804323298887e-14)
"freq" 7.943282347242802e-03
"loopGain" (-5.476913212898577e+04 1.244502036312002e+01)
"ZL" (8.185124426111598e+09 -2.766085435913546e+06)
"ZG" (1.000000000011643e+05 -1.638821287776692e-04)
"YL" (1.655347556865949e+00 -5.496035819936865e-06)
"YG" (9.999999999998342e-06 1.639049408966965e-14)
"freq" 8.912509381337440e-03
"loopGain" (-5.476913139679865e+04 1.396354232491423e+01)
"ZL" (8.185124184078436e+09 -3.103598813498692e+06)
"ZG" (1.000000000011685e+05 -1.838787715172177e-04)
"YL" (1.655347556861699e+00 -6.166653615459793e-06)
"YG" (9.999999999997915e-06 1.839043684514714e-14)
"freq" 9.999999999999981e-03
"loopGain" (-5.476913047469668e+04 1.566735191211116e+01)
"ZL" (8.185123879583855e+09 -3.482295014040245e+06)
"ZG" (1.000000000046170e+05 -2.063168439026684e-04)
"YL" (1.655347556856488e+00 -6.919099157814557e-06)
"YG" (9.999999999997375e-06 2.063440952491373e-14)
"freq" 1.122018454301961e-02
"loopGain" (-5.476912931459142e+04 1.757905760318945e+01)
"ZL" (8.185123495873500e+09 -3.907199085859248e+06)
"ZG" (1.000000000023284e+05 -2.314902150616731e-04)
"YL" (1.655347556849838e+00 -7.763356942185102e-06)
"YG" (9.999999999996694e-06 2.315218828341703e-14)
"freq" 1.258925411794165e-02
"loopGain" (-5.476912785335319e+04 1.972402651366661e+01)
"ZL" (8.185123013067096e+09 -4.383949220437231e+06)
"ZG" (1.000000000046324e+05 -2.597375147948007e-04)
"YL" (1.655347556841513e+00 -8.710629756426387e-06)
"YG" (9.999999999995837e-06 2.597718251544170e-14)
"freq" 1.412537544622751e-02
"loopGain" (-5.476912601384960e+04 2.213072099805794e+01)
"ZL" (8.185122405126717e+09 -4.918871562726093e+06)
"ZG" (1.000000000057909e+05 -2.914309877272421e-04)
"YL" (1.655347556830988e+00 -9.773487335247255e-06)
"YG" (9.999999999994758e-06 2.914687817871671e-14)
"freq" 1.584893192461110e-02
"loopGain" (-5.476912369847122e+04 2.483107631710644e+01)
"ZL" (8.185121639938631e+09 -5.519064151902164e+06)
"ZG" (1.000000000080999e+05 -3.269925110990676e-04)
"YL" (1.655347556817687e+00 -1.096603315295536e-05)
"YG" (9.999999999993396e-06 3.270333520982336e-14)
"freq" 1.778279410038919e-02
"loopGain" (-5.476912078458195e+04 2.786092438621590e+01)
"ZL" (8.185120676610505e+09 -6.192491100276968e+06)
"ZG" (1.000000000081170e+05 -3.668916438496630e-04)
"YL" (1.655347556801034e+00 -1.230409156799333e-05)
"YG" (9.999999999991688e-06 3.669374563389338e-14)
"freq" 1.995262314968875e-02
"loopGain" (-5.476911711495533e+04 3.126046922077310e+01)
"ZL" (8.185119463814319e+09 -6.948088263324060e+06)
"ZG" (1.000000000092861e+05 -4.116601785291246e-04)
"YL" (1.655347556780080e+00 -1.380541780255483e-05)
"YG" (9.999999999989537e-06 4.117105977450928e-14)
"freq" 2.238721138568334e-02
"loopGain" (-5.476911249516981e+04 3.507482039732221e+01)
"ZL" (8.185117936971389e+09 -7.795881799618306e+06)
"ZG" (1.000000000127564e+05 -4.618936313821701e-04)
"YL" (1.655347556753610e+00 -1.548993354359553e-05)
"YG" (9.999999999986824e-06 4.619468887260980e-14)
"freq" 2.511886431509574e-02
"loopGain" (-5.476910667953858e+04 3.935459158857775e+01)
"ZL" (8.185116014623813e+09 -8.747121192611838e+06)
"ZG" (1.000000000150858e+05 -5.182556588172874e-04)
"YL" (1.655347556720332e+00 -1.737999129151451e-05)
"YG" (9.999999999983411e-06 5.183129343756626e-14)
"freq" 2.818382931264447e-02
"loopGain" (-5.476909935800815e+04 4.415657212141386e+01)
"ZL" (8.185113594934382e+09 -9.814428499576509e+06)
"ZG" (1.000000000220149e+05 -5.815007386165779e-04)
"YL" (1.655347556678433e+00 -1.950067096424926e-05)
"YG" (9.999999999979115e-06 5.815566779208050e-14)
"freq" 3.162277660168371e-02
"loopGain" (-5.476909014066400e+04 4.954448046130294e+01)
"ZL" (8.185110548562826e+09 -1.101196579737266e+07)
"ZG" (1.000000000289551e+05 -6.524638935820697e-04)
"YL" (1.655347556625637e+00 -2.188011269253863e-05)
"YG" (9.999999999973707e-06 6.525173254827961e-14)
"freq" 3.548133892335745e-02
"loopGain" (-5.476907853663339e+04 5.558980960898405e+01)
"ZL" (8.185106712964240e+09 -1.235562305346118e+07)
"ZG" (1.000000000324663e+05 -7.320817943505492e-04)
"YL" (1.655347556559264e+00 -2.454989022236220e-05)
"YG" (9.999999999966900e-06 7.321364818360113e-14)
"freq" 3.981071705534961e-02
"loopGain" (-5.476906392894426e+04 6.237277561847788e+01)
"ZL" (8.185101884763226e+09 -1.386322890452887e+07)
"ZG" (1.000000000417335e+05 -8.214249941622513e-04)
"YL" (1.655347556475635e+00 -2.754542987934179e-05)
"YG" (9.999999999958327e-06 8.214706449503371e-14)
"freq" 4.466835921509617e-02
"loopGain" (-5.476904553795328e+04 6.998338179134667e+01)
"ZL" (8.185095806381472e+09 -1.555478711824016e+07)
"ZG" (1.000000000544659e+05 -9.216782212204674e-04)
"YL" (1.655347556370339e+00 -3.090648065455857e-05)
"YG" (9.999999999947536e-06 9.217052250861906e-14)
"freq" 5.011872336272707e-02
"loopGain" (-5.476902238457944e+04 7.852261267023832e+01)
"ZL" (8.185088153952748e+09 -1.745274188533092e+07)
"ZG" (1.000000000683739e+05 -1.034169601843614e-03)
"YL" (1.655347556237848e+00 -3.467764164947690e-05)
"YG" (9.999999999933951e-06 1.034170274490516e-13)
"freq" 5.623413251903472e-02
"loopGain" (-5.476899323681643e+04 8.810377360999209e+01)
"ZL" (8.185078519899673e+09 -1.958227542818900e+07)
"ZG" (1.000000000834648e+05 -1.160393471733121e-03)
"YL" (1.655347556071048e+00 -3.890895387890459e-05)
"YG" (9.999999999916849e-06 1.160358136426177e-13)
"freq" 6.309573444801911e-02
"loopGain" (-5.476895654240836e+04 9.885399365734000e+01)
"ZL" (8.185066391978171e+09 -2.197164185858609e+07)
"ZG" (1.000000001066336e+05 -1.302045128517484e-03)
"YL" (1.655347555861007e+00 -4.365656428479930e-05)
"YG" (9.999999999895316e-06 1.301943247695486e-13)
"freq" 7.079457843841354e-02
"loopGain" (-5.476891034785649e+04 1.109159116210530e+02)
"ZL" (8.185051123709176e+09 -2.465254165898231e+07)
"ZG" (1.000000001333011e+05 -1.460998960040603e-03)
"YL" (1.655347555596618e+00 -4.898347077202264e-05)
"YG" (9.999999999868208e-06 1.460804357466965e-13)
"freq" 7.943282347242786e-02
"loopGain" (-5.476885218769951e+04 1.244495675597095e+02)
"ZL" (8.185031901652881e+09 -2.766054173857841e+07)
"ZG" (1.000000001692200e+05 -1.639389202957696e-03)
"YL" (1.655347555159579e+00 -5.496035814565526e-05)
"YG" (9.999999999834082e-06 1.639049460430810e-13)
"freq" 8.912509381337422e-02
"loopGain" (-5.476877897316372e+04 1.396345247807746e+02)
"ZL" (8.185007703253609e+09 -3.103554654963404e+07)
"ZG" (1.000000002132608e+05 -1.839591852040854e-03)
"YL" (1.655347554740574e+00 -6.166653608061786e-05)
"YG" (9.999999999791121e-06 1.839043756279302e-13)
"freq" 9.999999999999962e-02
"loopGain" (-5.476868680227226e+04 1.566722500134922e+02)
"ZL" (8.184977239577803e+09 -3.482232638775905e+07)
"ZG" (1.000000002677413e+05 -2.064287847247528e-03)
"YL" (1.655347554213049e+00 -6.919099147576539e-05)
"YG" (9.999999999737033e-06 2.063441052822214e-13)
"freq" 1.122018454301959e-01
"loopGain" (-5.476857075423858e+04 1.757887833061354e+02)
"ZL" (8.184938886260783e+09 -3.907110977371328e+07)
"ZG" (1.000000003361331e+05 -2.316495561131844e-03)
"YL" (1.655347553236344e+00 -7.763356925204332e-05)
"YG" (9.999999999668946e-06 2.315218982450898e-13)
"freq" 1.258925411794162e-01
"loopGain" (-5.476842467341276e+04 1.972377328782682e+02)
"ZL" (8.184890605292002e+09 -4.383824765212901e+07)
"ZG" (1.000000004242103e+05 -2.599622469821126e-03)
"YL" (1.655347552400271e+00 -8.710629733507899e-05)
"YG" (9.999999999583223e-06 2.597718463980640e-13)
"freq" 1.412537544622748e-01
"loopGain" (-5.476824076701949e+04 2.213036330928126e+02)
"ZL" (8.184829823733716e+09 -4.918695766927208e+07)
"ZG" (1.000000005354605e+05 -2.917493004286122e-03)
"YL" (1.655347551243455e+00 -9.773487302914282e-05)
"YG" (9.999999999475311e-06 2.914688117744680e-13)
"freq" 1.584893192461107e-01
"loopGain" (-5.476800924129894e+04 2.483057106856815e+02)
"ZL" (8.184753304809205e+09 -5.518815835491604e+07)
"ZG" (1.000000006733830e+05 -3.274410872861039e-03)
"YL" (1.655347549710028e+00 -1.096603310636937e-04)
"YG" (9.999999999339456e-06 3.270333949061981e-13)
"freq" 1.778279410038915e-01
"loopGain" (-5.476771776818855e+04 2.786021070219019e+02)
"ZL" (8.184656974593766e+09 -6.192140346622481e+07)
"ZG" (1.000000008449337e+05 -3.675247237482491e-03)
"YL" (1.655347547729247e+00 -1.230409150045877e-04)
"YG" (9.999999999168423e-06 3.669375176576123e-13)
"freq" 1.995262314968871e-01
"loopGain" (-5.476735083974701e+04 3.125946112840304e+02)
"ZL" (8.184535707312546e+09 -6.947592819676940e+07)
"ZG" (1.000000010651196e+05 -4.125564376021122e-03)
"YL" (1.655347545524878e+00 -1.380541770975620e-04)
"YG" (9.999999998953110e-06 4.117106830832998e-13)
"freq" 2.238721138568329e-01
"loopGain" (-5.476688890417252e+04 3.507339643964368e+02)
"ZL" (8.184383044533603e+09 -7.795181979319829e+07)
"ZG" (1.000000013397882e+05 -4.631575261749923e-03)
"YL" (1.655347542568437e+00 -1.548993341223735e-04)
"YG" (9.999999998682045e-06 4.619470094060116e-13)
"freq" 2.511886431509568e-01
"loopGain" (-5.476630737306848e+04 3.935258021473468e+02)
"ZL" (8.184190861993032e+09 -8.746132694049966e+07)
"ZG" (1.000000016874367e+05 -5.200428074208842e-03)
"YL" (1.655347538823186e+00 -1.737999110519431e-04)
"YG" (9.999999998340790e-06 5.183131052194689e-13)
"freq" 2.818382931264440e-01
"loopGain" (-5.476557528390529e+04 4.415373101328218e+02)
"ZL" (8.183948930829461e+09 -9.813032248304780e+07)
"ZG" (1.000000021265945e+05 -5.840241990252762e-03)
"YL" (1.655347534007637e+00 -1.950067069797097e-04)
"YG" (9.999999997911174e-06 5.815569207663725e-13)
"freq" 3.162277660168364e-01
"loopGain" (-5.476465367645828e+04 4.954046736916377e+02)
"ZL" (8.183644379252320e+09 -1.100999361619446e+08)
"ZG" (1.000000026758297e+05 -6.560248210401760e-03)
"YL" (1.655347528315629e+00 -2.188011232214930e-04)
"YG" (9.999999997370323e-06 6.525176656881677e-13)
"freq" 3.548133892335737e-01
"loopGain" (-5.476349347005838e+04 5.558414107071851e+02)
"ZL" (8.183261001349278e+09 -1.235283740212717e+08)
"ZG" (1.000000033675267e+05 -7.371160844323340e-03)
"YL" (1.655347520632445e+00 -2.454988969117595e-04)
"YG" (9.999999996689437e-06 7.321369663220436e-13)
"freq" 3.981071705534953e-01
"loopGain" (-5.476203293737925e+04 6.236476881357108e+02)
"ZL" (8.182778410107965e+09 -1.385929430242989e+08)
"ZG" (1.000000042398607e+05 -8.285352877421806e-03)
"YL" (1.655347511333929e+00 -2.754542913176199e-04)
"YG" (9.999999995832246e-06 8.214713279577912e-13)
"freq" 4.466835921509609e-01
"loopGain" (-5.476019433757330e+04 6.997207224645040e+02)
"ZL" (8.182170943348307e+09 -1.554922975799375e+08)
"ZG" (1.000000053390984e+05 -9.317208083181872e-03)
"YL" (1.655347499349612e+00 -3.090647959187365e-04)
"YG" (9.999999994753113e-06 9.217061931529488e-13)
"freq" 5.011872336272697e-01
"loopGain" (-5.475787985928943e+04 7.850663819588895e+02)
"ZL" (8.181406317083280e+09 -1.744489264635498e+08)
"ZG" (1.000000067196042e+05 -1.048351493328624e-02)
"YL" (1.655347484431569e+00 -3.467764014755201e-04)
"YG" (9.999999993394560e-06 1.034171642338153e-12)
"freq" 5.623413251903461e-01
"loopGain" (-5.475496637901046e+04 8.808121026762734e+02)
"ZL" (8.180443912150541e+09 -1.957118939893833e+08)
"ZG" (1.000000084587522e+05 -1.180430480181353e-02)
"YL" (1.655347465561522e+00 -3.890895175248070e-04)
"YG" (9.999999991684241e-06 1.160360070971914e-12)
"freq" 6.309573444801898e-01
"loopGain" (-5.475129897342274e+04 9.882212425930156e+02)
"ZL" (8.179232639232770e+09 -2.195598476892591e+08)
"ZG" (1.000000106465892e+05 -1.330337575926140e-02)
"YL" (1.655347442059578e+00 -4.365656128825451e-04)
"YG" (9.999999989531075e-06 1.301945976817832e-12)
"freq" 7.079457843841340e-01
"loopGain" (-5.474668267327013e+04 1.108708987131721e+03)
"ZL" (8.177708245627338e+09 -2.463042959023012e+08)
"ZG" (1.000000134007151e+05 -1.500958281076713e-02)
"YL" (1.655347412182047e+00 -4.898346653110482e-04)
"YG" (9.999999986820407e-06 1.460808216481165e-12)
"freq" 7.943282347242770e-01
"loopGain" (-5.474087220841126e+04 1.243859919770623e+03)
"ZL" (8.175789956318298e+09 -2.762931501466867e+08)
"ZG" (1.000000168650705e+05 -1.695810112633550e-02)
"YL" (1.655347374729460e+00 -5.496035216257851e-04)
"YG" (9.999999983407876e-06 1.639054907800735e-12)
"freq" 8.912509381337405e-01
"loopGain" (-5.473355901932466e+04 1.395447340016430e+03)
"ZL" (8.173376252391030e+09 -3.099145078187872e+08)
"ZG" (1.000000212281575e+05 -1.919273697529192e-02)
"YL" (1.655347327616620e+00 -6.166652763098407e-04)
"YG" (9.999999979111752e-06 1.839051450064351e-12)
"freq" 9.999999999999942e-01
"loopGain" (-5.472435503768743e+04 1.565454387068089e+03)
"ZL" (8.170339604005907e+09 -3.476006282614537e+08)
"ZG" (1.000000267125031e+05 -2.176792766235775e-02)
"YL" (1.655347268299430e+00 -6.919097954179337e-04)
"YG" (9.999999973703255e-06 2.063451919865494e-12)
"freq" 1.122018454301957e+00
"loopGain" (-5.471277230261394e+04 1.756096958839582e+03)
"ZL" (8.166519895876429e+09 -3.898320168774373e+08)
"ZG" (1.000000336166826e+05 -2.475358381727642e-02)
"YL" (1.655347193343508e+00 -7.763355239936659e-04)
"YG" (9.999999966894360e-06 2.315234330344067e-12)
"freq" 1.258925411794160e+00
"loopGain" (-5.469819748379708e+04 1.969848332286530e+03)
"ZL" (8.161716243742806e+09 -4.371414793637209e+08)
"ZG" (1.000000422951984e+05 -2.823879099890414e-02)
"YL" (1.655347099316405e+00 -8.710627352948047e-04)
"YG" (9.999999958322470e-06 2.597740143728720e-12)
"freq" 1.412537544622746e+00
"loopGain" (-5.467985990757142e+04 2.209465237893317e+03)
"ZL" (8.155676831470808e+09 -4.901179314445686e+08)
"ZG" (1.000000532055272e+05 -3.234009099489010e-02)
"YL" (1.655346980827786e+00 -9.773483940097259e-04)
"YG" (9.999999947531101e-06 2.914718742128848e-12)
"freq" 1.584893192461104e+00
"loopGain" (-5.465679173809637e+04 2.478014953028072e+03)
"ZL" (8.148086356339598e+09 -5.494096443231405e+08)
"ZG" (1.000000669189551e+05 -3.721082935674263e-02)
"YL" (1.655346831543296e+00 -1.096602835556700e-03)
"YG" (9.999999933945575e-06 3.270377210574534e-12)
"freq" 1.778279410038912e+00
"loopGain" (-5.462777829081874e+04 2.778902656854621e+03)
"ZL" (8.138550577096569e+09 -6.157264544190470e+08)
"ZG" (1.000000841486396e+05 -4.305473517409128e-02)
"YL" (1.655346643572595e+00 -1.230408478923445e-03)
"YG" (9.999999916842419e-06 3.669436287724298e-12)
"freq" 1.995262314968867e+00
"loopGain" (-5.459129629911091e+04 3.115897868262939e+03)
"ZL" (8.126577427260990e+09 -6.898402628075601e+08)
"ZG" (1.000001057805132e+05 -5.014443555496411e-02)
"YL" (1.655346407094317e+00 -1.380540822731360e-03)
"YG" (9.999999895310820e-06 4.117193165342251e-12)
"freq" 2.238721138568325e+00
"loopGain" (-5.454543742046865e+04 3.493158164097484e+03)
"ZL" (8.111554115937874e+09 -7.725828709583547e+08)
"ZG" (1.000001329242501e+05 -5.884823197490478e-02)
"YL" (1.655346109465767e+00 -1.548992001962792e-03)
"YG" (9.999999868204151e-06 4.619592036443262e-12)
"freq" 2.511886431509564e+00
"loopGain" (-5.448781393660014e+04 3.915247521967410e+03)
"ZL" (8.092719669951700e+09 -8.648398313579997e+08)
"ZG" (1.000001669507770e+05 -6.966502801934976e-02)
"YL" (1.655345734523528e+00 -1.737997218505494e-03)
"YG" (9.999999834078898e-06 5.183303313044058e-12)
"freq" 2.818382931264435e+00
"loopGain" (-5.441544316008015e+04 4.387145438884224e+03)
"ZL" (8.069132491179243e+09 -9.675385138642492e+08)
"ZG" (1.000002095685188e+05 -8.327548387988647e-02)
"YL" (1.655345262770907e+00 -1.950064397791679e-03)
"YG" (9.999999791117764e-06 5.815812506209077e-12)
"freq" 3.162277660168358e+00
"loopGain" (-5.432460663099863e+04 4.914241329180446e+03)
"ZL" (8.039632746385934e+09 -1.081627979811162e+09)
"ZG" (1.000002628641221e+05 -1.006067334113987e-01)
"YL" (1.655344668663264e+00 -2.188007457073410e-03)
"YG" (9.999999737032937e-06 6.525520366152895e-12)
"freq" 3.548133892335731e+00
"loopGain" (-5.421068052367542e+04 5.502306575124982e+03)
"ZL" (8.002800007993317e+09 -1.208047549527740e+09)
"ZG" (1.000003294107570e+05 -1.229278605967203e-01)
"YL" (1.655343920878022e+00 -2.454983637520086e-03)
"YG" (9.999999668944234e-06 7.321855119565222e-12)
"freq" 3.981071705534945e+00
"loopGain" (-5.406793367139547e+04 6.157433675015545e+03)
"ZL" (7.956907380035721e+09 -1.347680124525777e+09)
"ZG" (1.000004123264287e+05 -1.519707166835663e-01)
"YL" (1.655342979256252e+00 -2.754535381291121e-03)
"YG" (9.999999583225725e-06 8.215399044219085e-12)
"freq" 4.466835921509600e+00
"loopGain" (-5.388929140006129e+04 6.885928352879369e+03)
"ZL" (7.899874907776833e+09 -1.501285565547752e+09)
"ZG" (1.000005153677457e+05 -1.900955291981685e-01)
"YL" (1.655341794169028e+00 -3.090637321399878e-03)
"YG" (9.999999475312645e-06 9.218030536409126e-12)
"freq" 5.011872336272687e+00
"loopGain" (-5.366606561654637e+04 7.694135935737734e+03)
"ZL" (7.829227196993499e+09 -1.669408856284830e+09)
"ZG" (1.000006430070544e+05 -2.405065480367897e-01)
"YL" (1.655340302063446e+00 -3.467748988581877e-03)
"YG" (9.999999339458350e-06 1.034308460859417e-11)
"freq" 5.623413251903450e+00
"loopGain" (-5.338765684364284e+04 8.588178199899745e+03)
"ZL" (7.742063380211629e+09 -1.852257870638452e+09)
"ZG" (1.000008004858522e+05 -3.075284624976367e-01)
"YL" (1.655338423310968e+00 -3.890873949375641e-03)
"YG" (9.999999168428276e-06 1.160553336291298e-11)
"freq" 6.309573444801886e+00
"loopGain" (-5.304124157155585e+04 9.573571403031872e+03)
"ZL" (7.635051653312777e+09 -2.049546854340559e+09)
"ZG" (1.000009938231772e+05 -3.969513324377258e-01)
"YL" (1.655336058450518e+00 -4.365626145998686e-03)
"YG" (9.999998953114714e-06 1.302218973543476e-11)
"freq" 7.079457843841326e+00
"loopGain" (-5.261147081247181e+04 1.065469161631659e+04)
"ZL" (7.504465537933290e+09 -2.260305181998046e+09)
"ZG" (1.000012297491319e+05 -5.164457287595368e-01)
"YL" (1.655333081373916e+00 -4.898304302880742e-03)
"YG" (9.999998682051880e-06 1.461193826222116e-11)
"freq" 7.943282347242755e+00
"loopGain" (-5.208022398101621e+04 1.183405171191028e+04)
"ZL" (7.346283927662048e+09 -2.482657657885438e+09)
"ZG" (1.000015155322774e+05 -6.760407421827332e-01)
"YL" (1.655329333163722e+00 -5.495975393927973e-03)
"YG" (9.999998340805374e-06 1.639599600583243e-11)
"freq" 8.912509381337388e+00
"loopGain" (-5.142648682840648e+04 1.311135874932796e+04)
"ZL" (7.156380097809450e+09 -2.713593634532744e+09)
"ZG" (1.000018586211981e+05 -8.886242111682801e-01)
"YL" (1.655324614596729e+00 -6.166568261357099e-03)
"YG" (9.999997911203666e-06 1.839820850290863e-11)
"freq" 9.999999999999924e+00
"loopGain" (-5.062645304076516e+04 1.448233628288291e+04)
"ZL" (6.930823259415096e+09 -2.948757870573974e+09)
"ZG" (1.000022661224065e+05 -1.170427095507161e+00)
"YL" (1.655318674520536e+00 -6.918978593637520e-03)
"YG" (9.999997370370646e-06 2.064538718170037e-11)
"freq" 1.122018454301955e+01
"loopGain" (-4.965398305448298e+04 1.593733031711921e+04)
"ZL" (6.666305806544580e+09 -3.182314826829709e+09)
"ZG" (1.000027439973119e+05 -1.541367931206387e+00)
"YL" (1.655311196099507e+00 -7.763186639694260e-03)
"YG" (9.999996689507716e-06 2.316769465591849e-11)
"freq" 1.258925411794157e+01
"loopGain" (-4.848158176892268e+04 1.745977774135523e+04)
"ZL" (6.360685900971362e+09 -3.406955167333405e+09)
"ZG" (1.000032961200426e+05 -2.025181373988526e+00)
"YL" (1.655301781862962e+00 -8.710389201447405e-03)
"YG" (9.999995832360814e-06 2.599908561041976e-11)
"freq" 1.412537544622743e+01
"loopGain" (-4.708206310676623e+04 1.902470709718811e+04)
"ZL" (6.013596773507722e+09 -3.614119529453808e+09)
"ZG" (1.000039231426073e+05 -2.649139217495362e+00)
"YL" (1.655289929779510e+00 -9.773147542740277e-03)
"YG" (9.999994753290636e-06 2.917781699975106e-11)
"freq" 1.584893192461101e+01
"loopGain" (-4.543103004543757e+04 2.059756051466112e+04)
"ZL" (5.627026057408158e+09 -3.794498269144904e+09)
"ZG" (1.000046214621929e+05 -3.443309850883851e+00)
"YL" (1.655275009255280e+00 -1.096555318690507e-02)
"YG" (9.999993394843717e-06 3.274703709698871e-11)
"freq" 1.778279410038909e+01
"loopGain" (-4.351018293993623e+04 2.213375033630571e+04)
"ZL" (5.205725319141224e+09 -3.938816764287911e+09)
"ZG" (1.000053824833665e+05 -4.439317315680916e+00)
"YL" (1.655256225899910e+00 -1.230341360608203e-02)
"YG" (9.999991684695149e-06 3.675547546748954e-11)
"freq" 1.995262314968863e+01
"loopGain" (-4.131125680554267e+04 2.357944780190185e+04)
"ZL" (4.757295981736120e+09 -4.038835389271369e+09)
"ZG" (1.000061924554277e+05 -5.668727669460722e+00)
"YL" (1.655232579521942e+00 -1.380446016789738e-02)
"YG" (9.999989531800773e-06 4.125825432013431e-11)
"freq" 2.238721138568321e+01
"loopGain" (-3.884008765050620e+04 2.487406932225838e+04)
"ZL" (4.291836568755936e+09 -4.088401825198048e+09)
"ZG" (1.000070331106642e+05 -7.161369138053751e+00)
"YL" (1.655202811487744e+00 -1.548858087168833e-02)
"YG" (9.999986821554690e-06 4.631785229362772e-11)
"freq" 2.511886431509559e+01
"loopGain" (-3.611998771442533e+04 2.595470016188279e+04)
"ZL" (3.821134079579408e+09 -4.084330009353333e+09)
"ZG" (1.000078831280283e+05 -8.943995347692532e+00)
"YL" (1.655165337380875e+00 -1.737808063553182e-02)
"YG" (9.999983409695448e-06 5.200526242734781e-11)
"freq" 2.818382931264430e+01
"loopGain" (-3.319340692565713e+04 2.676224222204792e+04)
"ZL" (3.357514072157526e+09 -4.026885133697520e+09)
"ZG" (1.000087202034988e+05 -1.103968142438210e+01)
"YL" (1.655118162653070e+00 -1.949797216780177e-02)
"YG" (9.999979114638544e-06 5.840139852487520e-11)
"freq" 3.162277660168353e+01
"loopGain" (-3.012094449900183e+04 2.724846732561087e+04)
"ZL" (2.912576692773218e+09 -3.919742520174611e+09)
"ZG" (1.000095233414314e+05 -1.346822041804971e+01)
"YL" (1.655058777112219e+00 -2.187630068047613e-02)
"YG" (9.999973707829932e-06 6.559882386663451e-11)
"freq" 3.548133892335724e+01
"loopGain" (-2.697725987682823e+04 2.738261288052043e+04)
"ZL" (2.496085755707661e+09 -3.769431836381984e+09)
"ZG" (1.000102748502060e+05 -1.624746717580846e+01)
"YL" (1.654984020898250e+00 -2.454450584972648e-02)
"YG" (9.999966901612158e-06 7.370390585047432e-11)
"freq" 3.981071705534938e+01
"loopGain" (-2.384424792793905e+04 2.715595992473261e+04)
"ZL" (2.115224723513746e+09 -3.584416861420109e+09)
"ZG" (1.000109616895702e+05 -1.939540001787114e+01)
"YL" (1.654889918027937e+00 -2.753782467789285e-02)
"YG" (9.999958333964750e-06 8.283953276977695e-11)
"freq" 4.466835921509592e+01
"loopGain" (-2.080270381142664e+04 2.658318140232092e+04)
"ZL" (1.774314067460769e+09 -3.374037568345619e+09)
"ZG" (1.000115759820471e+05 -2.293248167783696e+01)
"YL" (1.654771465038494e+00 -3.089573879536356e-02)
"YG" (9.999947549319243e-06 9.314858975584566e-11)
"freq" 5.011872336272678e+01
"loopGain" (-1.792422168622546e+04 2.570008590932234e+04)
"ZL" (1.474954910854134e+09 -3.147534225718298e+09)
"ZG" (1.000121147391232e+05 -2.688390067843104e+01)
"YL" (1.654622365517443e+00 -3.466246973682504e-02)
"YG" (9.999933974447254e-06 1.047984597704743e-10)
"freq" 5.623413251903440e+01
"loopGain" (-1.526498929044012e+04 2.455837970693034e+04)
"ZL" (1.216474114240391e+09 -2.913302791055994e+09)
"ZG" (1.000125790617686e+05 -3.128148930187552e+01)
"YL" (1.654434698250879e+00 -3.888752540108323e-02)
"YG" (9.999916888169564e-06 1.179869180809833e-10)
"freq" 6.309573444801875e+01
"loopGain" (-1.286249951227768e+04 2.321880313100481e+04)
"ZL" (9.965161943404779e+08 -2.678438929974845e+09)
"ZG" (1.000129730592753e+05 -3.616516175625169e+01)
"YL" (1.654198499976664e+00 -4.362630007940663e-02)
"YG" (9.999895383323725e-06 1.329499396826268e-10)
"freq" 7.079457843841314e+01
"loopGain" (-1.073531461657530e+04 2.174419831747335e+04)
"ZL" (8.116475524083151e+08 -2.448551431853632e+09)
"ZG" (1.000133027515709e+05 -4.158395494341210e+01)
"YL" (1.653901239528999e+00 -4.894072911638295e-02)
"YG" (9.999868319045303e-06 1.499721467865719e-10)
"freq" 7.943282347242742e+01
"loopGain" (-8.885268947231951e+03 2.019375281517835e+04)
"ZL" (6.578837049558152e+08 -2.227781962189565e+09)
"ZG" (1.000135751054758e+05 -4.759677452922543e+01)
"YL" (1.653527162308064e+00 -5.489999758453331e-02)
"YG" (9.999834260947744e-06 1.694008925514049e-10)
"freq" 8.912509381337372e+01