HEADER
"PSFversion" "1.00"
"simulator" "spectre"
"version" "25.1.0.235.isr5"
"date" "1:26:06 PM, Sun Jul 19, 2026"
"design" "// tb_fdota_stb_cm.scs (SKY130) -- fully-differential two-stage OTA with"
"analysis type" "margin.stb"
"analysis name" "stb"
"analysis description" "Stability Analysis `stb': freq = (1 mHz -> 10 GHz)"
"xVecSorted" "ascending"
"tolerance.relative" 1.000000000000000e-03
"operating point producer" "stb"
"probe" "FDPRB.IPRB_CM"
TYPE
"dB" FLOAT DOUBLE PROP(
"key" "gain"
"units" "dB"
)
"Deg" FLOAT DOUBLE PROP(
"key" "gain"
"units" "Deg"
)
"Hz" FLOAT DOUBLE PROP(
"key" "gain"
"units" "Hz"
)
"stbstate" STRING *
VALUE
"gainMargin" "dB" 1.625917841910271e+01
"gainMarginFreq" "Hz" 7.269945325728203e+06
"phaseMargin" "Deg" 6.147842082003690e+01
"phaseMarginFreq" "Hz" 1.251176983112348e+06
"stb_state" "stbstate" "The circuit is stable. Gain and phase margin are both found."
END
