HEADER
"PSFversion" "1.00"
"simulator" "spectre"
"version" "25.1.0.235.isr5"
"date" "9:17:52 PM, Sat Jul 18, 2026"
"design" "// tb_ota2s_stb.scs (SKY130) -- closed-loop unity-feedback bench with a"
"analysis type" "stb"
"analysis name" "stb"
"analysis description" "Stability Analysis `stb': freq = (1 mHz -> 10 GHz)"
"xVecSorted" "ascending"
"tolerance.relative" 1.000000000000000e-03
"operating point producer" "stb"
"probe" "IPRB0"
"marginFilename" "stb.margin.stb"
TYPE
"sweep" FLOAT DOUBLE PROP(
"key" "sweep"
)
"LOOPGAIN" COMPLEX DOUBLE PROP(
"key" "gain"
)
"IMPEDANCE" COMPLEX DOUBLE PROP(
"key" "advprobe"
)
"ADMITTANCE" COMPLEX DOUBLE PROP(
"key" "advprobe"
)
SWEEP
"freq" "sweep" PROP(
"sweep_direction" 0
"units" "Hz"
"plot" 0
"grid" 3
)
TRACE
"loopGain" "LOOPGAIN"
"ZL" "IMPEDANCE"
"ZG" "IMPEDANCE"
"YL" "ADMITTANCE"
"YG" "ADMITTANCE"
VALUE
"freq" 1.000000000000000e-03
"loopGain" (-1.878342868785403e+04 1.050547211864105e-01)
"ZL" (-1.553552350363457e+13 -1.185314938565171e+07)
"ZG" (-8.270866815125303e+08 -5.256819265871056e+03)
"YL" (1.899439929564378e-01 -1.034912018553402e-08)
"YG" (5.033251906204489e-23 9.237849920828865e-16)
"freq" 1.122018454301963e-03
"loopGain" (-1.878342868770190e+04 1.178733359033213e-01)
"ZL" (-1.553552350363220e+13 -1.330925130069311e+07)
"ZG" (-8.270866815114869e+08 -5.898769907744127e+03)
"YL" (1.899439929559127e-01 -1.161190383783691e-08)
"YG" (6.336559931067607e-23 1.036515283484173e-15)
"freq" 1.258925411794167e-03
"loopGain" (-1.878342840082959e+04 1.322560541180258e-01)
"ZL" (-1.359376625032508e+13 -1.143152086653255e+07)
"ZG" (-7.237105987819349e+08 -5.704233719995528e+03)
"YL" (1.899439929573148e-01 -1.302877039826663e-08)
"YG" (1.727530553082020e-13 1.162980066096107e-15)
"freq" 1.412537544622754e-03
"loopGain" (-1.878342872146884e+04 1.483937384523947e-01)
"ZL" (-1.359376625032257e+13 -1.283968676612872e+07)
"ZG" (-7.237105987800269e+08 -6.400964072470822e+03)
"YL" (1.899439929559122e-01 -1.461852081537808e-08)
"YG" (1.004267390218406e-22 1.304882983964465e-15)
"freq" 1.584893192461113e-03
"loopGain" (-1.878342865276619e+04 1.665005118583333e-01)
"ZL" (-1.812445176952714e+13 -2.560890022809231e+07)
"ZG" (-9.649171245946754e+08 -9.916478664718306e+03)
"YL" (1.899439929564370e-01 -1.640225012977337e-08)
"YG" (1.264307562124333e-22 1.464114005732208e-15)
"freq" 1.778279410038922e-03
"loopGain" (-1.878342865238407e+04 1.868166469555734e-01)
"ZL" (-1.812445176951781e+13 -2.872090760763032e+07)
"ZG" (-9.649171245910553e+08 -1.112579321817143e+04)
"YL" (1.899439929564366e-01 -1.840362733881031e-08)
"YG" (1.591670827621376e-22 1.642764951645799e-15)
"freq" 1.995262314968878e-03
"loopGain" (-1.878342868610255e+04 2.096117261925545e-01)
"ZL" (-1.553552350360742e+13 -2.370632068553760e+07)
"ZG" (-8.270866815005264e+08 -1.049172422695030e+04)
"YL" (1.899439929569611e-01 -2.064920951303563e-08)
"YG" (2.003785585351892e-22 1.843204105146796e-15)
"freq" 2.238721138568338e-03
"loopGain" (-1.878342865129737e+04 2.351882241663221e-01)
"ZL" (-1.812445176949130e+13 -3.612713635909306e+07)
"ZG" (-9.649171245807669e+08 -1.400492833802911e+04)
"YL" (1.899439929564355e-01 -2.316879413864918e-08)
"YG" (2.522616184163258e-22 2.068108656187498e-15)
"freq" 2.511886431509578e-03
"loopGain" (-1.878342871893403e+04 2.638855297052506e-01)
"ZL" (-1.359376625029642e+13 -2.280436638866950e+07)
"ZG" (-7.237105987669744e+08 -1.138120213128378e+04)
"YL" (1.899439929569598e-01 -2.599581457009079e-08)
"YG" (3.175825640973296e-22 2.320485295060886e-15)
"freq" 2.818382931264451e-03
"loopGain" (-1.878342868377462e+04 2.960844330282031e-01)
"ZL" (-1.553552350357161e+13 -3.343917763289275e+07)
"ZG" (-8.270866814846367e+08 -1.481745800875928e+04)
"YL" (1.899439929564339e-01 -2.916778368602410e-08)
"YG" (3.998098528953890e-22 2.603608431010661e-15)
"freq" 3.162277660168376e-03
"loopGain" (-1.878342871676578e+04 3.322121990954132e-01)
"ZL" (-1.359376625027403e+13 -2.871081544060270e+07)
"ZG" (-7.237105987558002e+08 -1.432818142552399e+04)
"YL" (1.899439929569577e-01 -3.272679156446137e-08)
"YG" (5.033328141722369e-22 2.921308505094679e-15)
"freq" 3.548133892335751e-03
"loopGain" (-1.878342868104495e+04 3.727482166788645e-01)
"ZL" (-1.553552350353004e+13 -4.199691119251256e+07)
"ZG" (-8.270866814661103e+08 -1.864872293820407e+04)
"YL" (1.899439929569562e-01 -3.672006410124774e-08)
"YG" (6.336512851848783e-22 3.277724864856616e-15)
"freq" 3.981071705534968e-03
"loopGain" (-1.878342871332933e+04 4.182303794117854e-01)
"ZL" (-1.359376625023856e+13 -3.614276949740539e+07)
"ZG" (-7.237105987380952e+08 -1.803800492351702e+04)
"YL" (1.899439929569544e-01 -4.120058956715951e-08)
"YG" (7.977215928568459e-22 3.677676452245328e-15)
"freq" 4.466835921509626e-03
"loopGain" (-1.878342867671872e+04 4.692622021517303e-01)
"ZL" (-1.553552350346250e+13 -5.303265904372838e+07)
"ZG" (-8.270866814363385e+08 -2.348595880883727e+04)
"YL" (1.899439929569521e-01 -4.622782178790908e-08)
"YG" (1.004280504242095e-21 4.126455865889039e-15)
"freq" 5.011872336272717e-03
"loopGain" (-1.878342874208249e+04 5.265208544802332e-01)
"ZL" (-1.208347442717762e+13 -3.597347868891464e+07)
"ZG" (-6.433050525747398e+08 -1.994744792549187e+04)
"YL" (1.899439929558992e-01 -5.186846920372783e-08)
"YG" (1.264318038197154e-21 4.629973517459823e-15)
"freq" 5.623413251903483e-03
"loopGain" (-1.878342860146299e+04 5.907661065119457e-01)
"ZL" (-2.174879505200386e+13 -1.308846183385306e+08)
"ZG" (-1.157871424094404e+09 -4.338423244318638e+04)
"YL" (1.899439929558955e-01 -5.819737959992379e-08)
"YG" (1.591665217242618e-21 5.194860600617762e-15)
"freq" 6.309573444801923e-03
"loopGain" (-1.878342869925097e+04 6.628504808098465e-01)
"ZL" (-1.359376625009336e+13 -5.726515955907463e+07)
"ZG" (-7.237105986655947e+08 -2.858739179304582e+04)
"YL" (1.899439929553659e-01 -6.529853392677924e-08)
"YG" (2.003804492770068e-21 5.828777997384972e-15)
"freq" 7.079457843841368e-03
"loopGain" (-1.878342865899510e+04 7.437304691502119e-01)
"ZL" (-1.553552350318821e+13 -8.409612233541149e+07)
"ZG" (-8.270866813149588e+08 -3.722513313629085e+04)
"YL" (1.899439929564101e-01 -7.326616014879983e-08)
"YG" (2.522675216202518e-21 6.540086778034266e-15)
"freq" 7.943282347242802e-03
"loopGain" (-1.878342865137066e+04 8.344793108335067e-01)
"ZL" (-1.553552350307329e+13 -9.410990204830654e+07)
"ZG" (-8.270866812635088e+08 -4.175410987952485e+04)
"YL" (1.899439929569278e-01 -8.220598367387206e-08)
"YG" (3.175805256807505e-21 7.337971763469283e-15)
"freq" 8.912509381337440e-03
"loopGain" (-1.878342871017118e+04 9.363011928925974e-01)
"ZL" (-1.208347442694591e+13 -6.397345565033013e+07)
"ZG" (-6.433050524462602e+08 -3.547227217537631e+04)
"YL" (1.899439929558685e-01 -9.223663073923715e-08)
"YG" (3.998125791986775e-21 8.233388838736695e-15)
"freq" 9.999999999999981e-03
"loopGain" (-1.878342862968815e+04 1.050547208958133e+00)
"ZL" (-1.553552350273733e+13 -1.186337160474372e+08)
"ZG" (-8.270866811149186e+08 -5.257363480373666e+04)
"YL" (1.899439929569070e-01 -1.034912018720894e-07)
"YG" (5.033353637706826e-21 9.238035264772519e-15)
"freq" 1.122018454301961e-02
"loopGain" (-1.878342861447539e+04 1.178733354323042e+00)
"ZL" (-1.553552350250209e+13 -1.331436240960352e+08)
"ZG" (-8.270866810107816e+08 -5.899042014709627e+04)
"YL" (1.899439929558424e-01 -1.161190383221868e-07)
"YG" (6.336522040500607e-21 1.036509105353095e-14)
"freq" 1.258925411794165e-02
"loopGain" (-1.878342862952323e+04 1.322560579791267e+00)
"ZL" (-1.359376624937064e+13 -1.144521741207418e+08)
"ZG" (-7.237105983055347e+08 -5.704962901997704e+04)
"YL" (1.899439929558240e-01 -1.302877038763781e-07)
"YG" (7.977246031500603e-21 1.162987796928716e-14)
"freq" 1.412537544622751e-02
"loopGain" (-1.878342850281397e+04 1.483937359447706e+00)
"ZL" (-2.174879504782973e+13 -3.284632268786942e+08)
"ZG" (-1.157871422709526e+09 -1.089600765914410e+05)
"YL" (1.899439929558009e-01 -1.461852081137632e-07)
"YG" (1.004276981504836e-20 1.304895340225089e-14)
"freq" 1.584893192461110e-02
"loopGain" (-1.878342857505920e+04 1.665005117768311e+00)
"ZL" (-1.359376624881309e+13 -1.437887231718003e+08)
"ZG" (-7.237105980262122e+08 -7.180536120444443e+04)
"YL" (1.899439929557717e-01 -1.640225013528246e-07)
"YG" (1.264311083599414e-20 1.464118124480877e-14)
"freq" 1.778279410038919e-02
"loopGain" (-1.878342839405454e+04 1.868166436696367e+00)
"ZL" (-2.848537575221556e+13 -7.091770553055432e+08)
"ZG" (-1.516516314278143e+09 -1.885830193133600e+05)
"YL" (1.899439929562600e-01 -1.840362733399479e-07)
"YG" (1.591678809631559e-20 1.642773189151864e-14)
"freq" 1.995262314968875e-02
"loopGain" (-1.878342842034043e+04 2.096117228566739e+00)
"ZL" (-1.812445176383652e+13 -3.221191898709757e+08)
"ZG" (-9.649171223894585e+08 -1.248262821802648e+05)
"YL" (1.899439929567389e-01 -2.064920949699341e-07)
"YG" (2.003790105209335e-20 1.843208223898436e-14)
"freq" 2.238721138568334e-02
"loopGain" (-1.878342832557782e+04 2.351882197250442e+00)
"ZL" (-2.174879504032025e+13 -5.207344271299448e+08)
"ZG" (-1.157871420219472e+09 -1.726983512435367e+05)
"YL" (1.899439929551058e-01 -2.316879412076746e-07)
"YG" (2.522656392719142e-20 2.068141606203390e-14)
"freq" 2.511886431509574e-02
"loopGain" (-1.878342835193210e+04 2.638855245573031e+00)
"ZL" (-1.359376624651005e+13 -2.279653978437013e+08)
"ZG" (-7.237105968766840e+08 -1.138078545243495e+05)
"YL" (1.899439929555576e-01 -2.599581458257703e-07)
"YG" (3.175831266498183e-20 2.320489413797551e-14)
"freq" 2.818382931264447e-02
"loopGain" (-1.878342825594612e+04 2.960844268296788e+00)
"ZL" (-1.359376624550076e+13 -2.562852772239099e+08)
"ZG" (-7.237105963770547e+08 -1.277213395265403e+05)
"YL" (1.899439929565155e-01 -2.916778371496128e-07)
"YG" (3.998104902950004e-20 2.603612549765576e-14)
"freq" 3.162277660168371e-02
"loopGain" (-1.878342816930648e+04 3.322121900884577e+00)
"ZL" (-1.208347442302876e+13 -2.267193205557555e+08)
"ZG" (-6.433050502717490e+08 -1.258461529541961e+05)
"YL" (1.899439929553494e-01 -3.272679157045341e-07)
"YG" (5.033399185904405e-20 2.921349692607906e-14)
"freq" 3.548133892335745e-02
"loopGain" (-1.878342801717895e+04 3.727482049343015e+00)
"ZL" (-1.208347442191521e+13 -2.546576077760139e+08)
"ZG" (-6.433050496565480e+08 -1.412163117612913e+05)
"YL" (1.899439929552035e-01 -3.672006407191131e-07)
"YG" (6.336600493664265e-20 3.277770171118128e-14)
"freq" 3.981071705534961e-02
"loopGain" (-1.878342743638234e+04 4.182303430975945e+00)
"ZL" (-1.553552348926785e+13 -4.724912953621157e+08)
"ZG" (-8.270866751489372e+08 -2.093101621161145e+05)
"YL" (1.899439929537969e-01 -4.120058953398299e-07)
"YG" (1.727531349975677e-13 3.677647217980582e-14)
"freq" 4.466835921509617e-02
"loopGain" (-1.878342751615677e+04 4.692621731753960e+00)
"ZL" (-1.553552348554709e+13 -5.301221454306288e+08)
"ZG" (-8.270866734996245e+08 -2.348487035219711e+05)
"YL" (1.899439929558383e-01 -4.622782181648613e-07)
"YG" (1.004282511356673e-19 4.126464103372434e-14)
"freq" 5.011872336272707e-02
"loopGain" (-1.878342724682203e+04 5.265208115563755e+00)
"ZL" (-1.359376623505708e+13 -4.556182130472079e+08)
"ZG" (-7.237105911704611e+08 -2.271173806979808e+05)
"YL" (1.899439929544970e-01 -5.186846912640557e-07)
"YG" (1.264309042910915e-19 4.629940567395273e-14)
"freq" 5.623413251903472e-02
"loopGain" (-1.878342683049545e+04 5.907660530240066e+00)
"ZL" (-1.553552347499157e+13 -6.670463917015550e+08)
"ZG" (-8.270866688177853e+08 -2.956390140927808e+05)
"YL" (1.899439929546552e-01 -5.819737960615468e-07)
"YG" (1.591677839774408e-19 5.194901788121803e-14)
"freq" 6.309573444801911e-02
"loopGain" (-1.878342628102696e+04 6.628503919235501e+00)
"ZL" (-2.174879495350521e+13 -1.469272665973863e+09)
"ZG" (-1.157871391458722e+09 -4.868175888195887e+05)
"YL" (1.899439929541935e-01 -6.529853391714037e-07)
"YG" (2.003810142339436e-19 5.828794472364182e-14)
"freq" 7.079457843841354e-02
"loopGain" (-1.878342577799512e+04 7.437303561171556e+00)
"ZL" (-1.359376621987125e+13 -6.433728792446221e+08)
"ZG" (-7.237105835962801e+08 -3.208009155961844e+05)
"YL" (1.899439929530873e-01 -7.326616011831096e-07)
"YG" (2.522611661655243e-19 6.539922027768007e-14)
"freq" 7.943282347242786e-02
"loopGain" (-1.878342491295299e+04 8.344791416314376e+00)
"ZL" (-2.174879489609630e+13 -1.845802739386937e+09)
"ZG" (-1.157871372345173e+09 -6.126592981227571e+05)
"YL" (1.899439929523555e-01 -8.220598369059949e-07)
"YG" (3.175776746049104e-19 7.337905863231907e-14)
"freq" 8.912509381337422e-02
"loopGain" (-1.878342359801392e+04 9.363009135764232e+00)
"ZL" (-2.719009697588489e+13 -3.240727617927134e+09)
"ZG" (-1.447557640166431e+09 -8.940863010958703e+05)
"YL" (1.899439929502116e-01 -9.223663071672070e-07)
"YG" (1.727534550329485e-13 8.233271999749145e-14)
"freq" 9.999999999999962e-02
"loopGain" (-1.878342277890179e+04 1.050546879789499e+01)
"ZL" (-1.812445162589792e+13 -1.613377274142802e+09)
"ZG" (-9.649170689050249e+08 -6.255578596541660e+05)
"YL" (1.899439929513247e-01 -1.034912018690149e-06)
"YG" (5.033335680645159e-19 9.238002314470651e-14)
"freq" 1.122018454301959e-01
"loopGain" (-1.878342115502896e+04 1.178732877981644e+01)
"ZL" (-3.625346170002347e+13 -7.248768697028929e+09)
"ZG" (-1.930076676287829e+09 -1.597091662845261e+06)
"YL" (1.899439929493396e-01 -1.161190383699351e-06)
"YG" (6.336602616836060e-19 1.036522285329757e-13)
"freq" 1.258925411794162e-01
"loopGain" (-1.878341931421205e+04 1.322559917243906e+01)
"ZL" (-2.098856883052999e+13 -2.724736260714995e+09)
"ZG" (-1.117398081424977e+09 -9.318193661700087e+05)
"YL" (1.899439929469765e-01 -1.302877038895690e-06)
"YG" (7.977268621510811e-19 1.162991091877582e-13)
"freq" 1.412537544622748e-01
"loopGain" (-1.878341704598666e+04 1.483936466112051e+01)
"ZL" (-1.161408084144197e+13 -9.373552466601045e+08)
"ZG" (-6.183152416561319e+08 -5.383797072083922e+05)
"YL" (1.899439929451876e-01 -1.461852081573195e-06)
"YG" (1.004280785392121e-18 1.304900282656732e-13)
"freq" 1.584893192461107e-01
"loopGain" (-1.878341386781669e+04 1.665003805862770e+01)
"ZL" (-2.098856862299196e+13 -3.432034109220765e+09)
"ZG" (-1.117398010534802e+09 -1.173186599975525e+06)
"YL" (1.899439929427995e-01 -1.640225012913574e-06)
"YG" (1.264319619453062e-18 1.464128009389996e-13)
"freq" 1.778279410038915e-01
"loopGain" (-1.878341001834681e+04 1.868164610875517e+01)
"ZL" (-2.492347097371212e+13 -5.433144475213273e+09)
"ZG" (-1.326885857753949e+09 -1.608927845627000e+06)
"YL" (1.899439929386071e-01 -1.840362734253530e-06)
"YG" (1.591675618278990e-18 1.642769893996152e-13)
"freq" 1.995262314968871e-01
"loopGain" (-1.878340492098278e+04 2.096114568358978e+01)
"ZL" (-2.027684118818568e+13 -4.030442969495379e+09)
"ZG" (-1.079506690939137e+09 -1.419219284244983e+06)
"YL" (1.899439929348675e-01 -2.064920950109814e-06)
"YG" (1.727550590160296e-13 1.843205918358096e-13)
"freq" 2.238721138568329e-01
"loopGain" (-1.878339922576580e+04 2.351878560078756e+01)
"ZL" (-1.661373197973291e+13 -3.040256364594152e+09)
"ZG" (-8.844885914825664e+08 -1.269313057006129e+06)
"YL" (1.899439929287028e-01 -2.316879412669826e-06)
"YG" (2.522640316819366e-18 2.068128425903764e-13)
"freq" 2.511886431509568e-01
"loopGain" (-1.878339167574728e+04 2.638850096800315e+01)
"ZL" (-1.246065824495312e+13 -1.918268041000695e+09)
"ZG" (-6.633855785684471e+08 -1.034090815223775e+06)
"YL" (1.899439929213854e-01 -2.599581458061736e-06)
"YG" (3.175844794187909e-18 2.320499298389189e-13)
"freq" 2.818382931264440e-01
"loopGain" (-1.878338187195632e+04 2.960836929201137e+01)
"ZL" (-3.987478474405650e+13 -2.202039732670646e+10)
"ZG" (-2.122868577398739e+09 -4.518571135628512e+06)
"YL" (1.899439929111233e-01 -2.916778367836860e-06)
"YG" (3.998135256635786e-18 2.603632319161591e-13)
"freq" 3.162277660168364e-01
"loopGain" (-1.878336983425207e+04 3.322111553381425e+01)
"ZL" (-2.658809803749246e+13 -1.099666658083156e+10)
"ZG" (-1.415507220003145e+09 -3.088935987130615e+06)
"YL" (1.899439928990010e-01 -3.272679155803801e-06)
"YG" (5.033308349404206e-18 2.921296971692687e-13)
"freq" 3.548133892335737e-01
"loopGain" (-1.878335473615170e+04 3.727467496950536e+01)
"ZL" (-1.459021025366692e+13 -3.714515935822852e+09)
"ZG" (-7.767593078284681e+08 -1.739172464963636e+06)
"YL" (1.899439928849260e-01 -3.672006406600927e-06)
"YG" (6.336587752803339e-18 3.277763579899313e-13)
"freq" 3.981071705534953e-01
"loopGain" (-1.878333552814979e+04 4.182283031052031e+01)
"ZL" (-1.869340987652694e+13 -6.836707249982677e+09)
"ZG" (-9.952067431226034e+08 -2.579860729457589e+06)
"YL" (1.899439928675955e-01 -4.120058953375138e-06)
"YG" (7.977376729520996e-18 3.677750588083469e-13)
"freq" 4.466835921509609e-01
"loopGain" (-1.878331139557939e+04 4.692592706299519e+01)
"ZL" (-2.099162205627943e+13 -9.672197898021448e+09)
"ZG" (-1.117559445860775e+09 -3.306863873331433e+06)
"YL" (1.899439928434059e-01 -4.622782174268386e-06)
"YG" (1.004272886720990e-17 4.126424560893461e-13)
"freq" 5.011872336272697e-01
"loopGain" (-1.878328113490616e+04 5.265167158689308e+01)
"ZL" (-1.375071560310539e+13 -4.651771493919477e+09)
"ZG" (-7.320656395634109e+08 -2.299684527768750e+06)
"YL" (1.899439928142749e-01 -5.186846912142772e-06)
"YG" (1.264305443700850e-17 4.629927383965181e-13)
"freq" 5.623413251903461e-01
"loopGain" (-1.878324287837329e+04 5.907602672794390e+01)
"ZL" (-1.638888735352397e+13 -7.416277255392790e+09)
"ZG" (-8.725171801555988e+08 -3.138983153718357e+06)
"YL" (1.899439927781260e-01 -5.819737957516580e-06)
"YG" (1.591685915481072e-17 5.194928143318064e-13)
"freq" 6.309573444801898e-01
"loopGain" (-1.878319476818804e+04 6.628422240870067e+01)
"ZL" (-1.661564368834862e+13 -8.565547154560292e+09)
"ZG" (-8.845889610073285e+08 -3.577606525518568e+06)
"YL" (1.899439927319565e-01 -6.529853384072704e-06)
"YG" (2.003805609087766e-17 5.828781285532282e-13)
"freq" 7.079457843841340e-01
"loopGain" (-1.878313417423657e+04 7.437188073002322e+01)
"ZL" (-1.929924348758886e+13 -1.294924401102942e+10)
"ZG" (-1.027458446129056e+09 -4.757566617298975e+06)
"YL" (1.899439926727824e-01 -7.326615999465925e-06)
"YG" (2.522631992798222e-17 6.539974738165403e-13)
"freq" 7.943282347242770e-01
"loopGain" (-1.878305805473644e+04 8.344628504899285e+01)
"ZL" (-1.173036107637561e+13 -5.368270189330321e+09)
"ZG" (-6.245045867331212e+08 -3.060204877853708e+06)
"YL" (1.899439925996085e-01 -8.220598355318023e-06)
"YG" (3.175816670042033e-17 7.337998109689469e-13)
"freq" 8.912509381337405e-01
"loopGain" (-1.878296196174026e+04 9.362779225129107e+01)
"ZL" (-1.786160483783837e+13 -1.397039416888191e+10)
"ZG" (-9.509198619724454e+08 -5.483771219628740e+06)
"YL" (1.899439925074881e-01 -9.223663049690202e-06)
"YG" (3.998128986809070e-17 8.233395409307076e-13)
"freq" 9.999999999999942e-01
"loopGain" (-1.878284113860865e+04 1.050514350342742e+02)
"ZL" (-1.685664017236090e+13 -1.398220666810825e+10)
"ZG" (-8.974166778456411e+08 -5.763535705606047e+06)
"YL" (1.899439923909904e-01 -1.034912015982771e-05)
"YG" (5.033235131503955e-17 9.237817767049046e-13)
"freq" 1.122018454301957e+00
"loopGain" (-1.878268865977081e+04 1.178686896902335e+02)
"ZL" (-2.029109199607655e+13 -2.271605874965195e+10)
"ZG" (-1.080258030597911e+09 -7.988343993726397e+06)
"YL" (1.899439922442916e-01 -1.161190378451995e-05)
"YG" (1.728164197195094e-13 1.036497222505925e-12)
"freq" 1.258925411794160e+00
"loopGain" (-1.878249760588556e+04 1.322495029966546e+02)
"ZL" (-1.184996617310918e+13 -8.681631700597326e+09)
"ZG" (-6.308701876100454e+08 -4.904168671155781e+06)
"YL" (1.899439920601349e-01 -1.302877033105034e-05)
"YG" (7.977214342978235e-17 1.162983178440367e-12)
"freq" 1.412537544622746e+00
"loopGain" (-1.878225683217447e+04 1.483844833084341e+02)
"ZL" (-1.221352760693762e+13 -1.036236168429795e+10)
"ZG" (-6.502245186610812e+08 -5.688560905968846e+06)
"YL" (1.899439918273365e-01 -1.461852073348330e-05)
"YG" (-1.726526257166857e-13 1.304918842446793e-12)
"freq" 1.584893192461104e+00
"loopGain" (-1.878195322396650e+04 1.664874364566700e+02)
"ZL" (-1.901401227662615e+13 -2.819515622801993e+10)
"ZG" (-1.012262610261486e+09 -1.047395891008377e+07)
"YL" (1.899439915360262e-01 -1.640225001954562e-05)
"YG" (-1.726266226572414e-13 1.464135008295891e-12)
"freq" 1.778279410038912e+00
"loopGain" (-1.878157117022613e+04 1.867981765254780e+02)
"ZL" (-1.761701390120790e+13 -2.714709475089962e+10)
"ZG" (-9.378875589936748e+08 -1.077332202745283e+07)
"YL" (1.899439911677131e-01 -1.840362714783241e-05)
"YG" (-1.725938862957394e-13 1.642783980676202e-12)
"freq" 1.995262314968867e+00
"loopGain" (-1.878109024520726e+04 2.095856351606411e+02)
"ZL" (-1.426380617956852e+13 -1.995580765127259e+10)
"ZG" (-7.593706057711058e+08 -9.536526997883216e+06)
"YL" (1.899439907033923e-01 -2.064920925440094e-05)
"YG" (-1.725526729521082e-13 1.843238185385313e-12)
"freq" 2.238721138568325e+00
"loopGain" (-1.878048444208756e+04 2.351513612212075e+02)
"ZL" (-1.461681136775414e+13 -2.350313797364836e+10)
"ZG" (-7.781602312706311e+08 -1.099468891963439e+07)
"YL" (1.899439901214539e-01 -2.316879379337476e-05)
"YG" (2.522633849907554e-16 2.068123123333391e-12)
"freq" 2.511886431509564e+00
"loopGain" (-1.877972253163032e+04 2.638334671003632e+02)
"ZL" (-1.713925673326669e+13 -3.626515623548666e+10)
"ZG" (-9.124397716890550e+08 -1.474959844471556e+07)
"YL" (1.899439893856880e-01 -2.599581407428581e-05)
"YG" (-1.724354754433222e-13 2.320464906193029e-12)
"freq" 2.818382931264435e+00
"loopGain" (-1.877876260175388e+04 2.960108805124656e+02)
"ZL" (-5.766239140926024e+13 -4.607142664025624e+11)
"ZG" (-3.069467803687863e+09 -7.291722651131526e+07)
"YL" (1.899439884622110e-01 -2.916778297648779e-05)
"YG" (3.998070394949462e-16 2.603590082140840e-12)
"freq" 3.162277660168358e+00
"loopGain" (-1.877755498032488e+04 3.321083148751427e+02)
"ZL" (-1.971626243898422e+13 -6.042301590762552e+10)
"ZG" (-1.049605702856596e+09 -2.178132881846016e+07)
"YL" (1.899439872982835e-01 -3.272679059399183e-05)
"YG" (5.033317284641721e-16 2.921302157559589e-12)
"freq" 3.548133892335731e+00
"loopGain" (-1.877603480146021e+04 3.726014929583909e+02)
"ZL" (-1.484257404163550e+13 -3.839400917524313e+10)
"ZG" (-7.901545782245659e+08 -1.772482715049013e+07)
"YL" (1.899439858340732e-01 -3.672006272103907e-05)
"YG" (6.336607904439188e-16 3.277774002235788e-12)
"freq" 3.981071705534945e+00
"loopGain" (-1.877412129705051e+04 4.180231466481690e+02)
"ZL" (-1.399363317375060e+13 -3.832899811594228e+10)
"ZG" (-7.449534362690839e+08 -1.862839174950960e+07)
"YL" (1.899439839897290e-01 -4.120058761367670e-05)
"YG" (7.977193390412161e-16 3.677666064113896e-12)
"freq" 4.466835921509600e+00
"loopGain" (-1.877171248128563e+04 4.689694978287114e+02)
"ZL" (-1.918585501920787e+13 -8.083618253565834e+10)
"ZG" (-1.021317022366517e+09 -2.982119458813631e+07)
"YL" (1.899439816677208e-01 -4.622781901371246e-05)
"YG" (1.737573165049618e-13 4.126377002154611e-12)
"freq" 5.011872336272687e+00
"loopGain" (-1.876868133677820e+04 5.261074671142871e+02)
"ZL" (-1.893121160707158e+13 -8.826103134088870e+10)
"ZG" (-1.007736007096781e+09 -3.295009374799626e+07)
"YL" (1.899439787456923e-01 -5.186846527735547e-05)
"YG" (1.740173562908705e-13 4.629911498981212e-12)
"freq" 5.623413251903450e+00
"loopGain" (-1.876486718613641e+04 5.901823437000368e+02)
"ZL" (-1.150455504003252e+13 -3.660409162585482e+10)
"ZG" (-6.124229944452356e+08 -2.121194969786522e+07)
"YL" (1.899439750669352e-01 -5.819737411016636e-05)
"YG" (1.591666382398203e-15 5.194864394868419e-12)
"freq" 6.309573444801886e+00
"loopGain" (-1.876006670237267e+04 6.620260669019078e+02)
"ZL" (-1.500462279756238e+13 -6.978845898307169e+10)
"ZG" (-7.986912291626333e+08 -3.190469646096328e+07)
"YL" (1.899439704340549e-01 -6.529852618251529e-05)
"YG" (1.747568219937504e-13 5.828668492584824e-12)
"freq" 7.079457843841326e+00
"loopGain" (-1.875402763194679e+04 7.425663691927923e+02)
"ZL" (-1.157099542665049e+13 -4.660475179080673e+10)
"ZG" (-6.159232153497996e+08 -2.687215497758443e+07)
"YL" (1.899439646029228e-01 -7.326614912373720e-05)
"YG" (2.522619417238088e-15 6.539942139665779e-12)
"freq" 7.943282347242755e+00
"loopGain" (-1.874642945931122e+04 8.328355990223764e+02)
"ZL" (-2.137310383167816e+13 -1.784681239597310e+11)
"ZG" (-1.137448053264062e+09 -6.005196228730428e+07)
"YL" (1.899439572601663e-01 -8.220596819960128e-05)
"YG" (1.759287840787983e-13 7.337795450469014e-12)
"freq" 8.912509381337388e+00
"loopGain" (-1.873687383877344e+04 9.339806327763990e+02)
"ZL" (-3.282701683958016e+13 -4.715815323766816e+11)
"ZG" (-1.746406843380553e+09 -1.122206942980717e+08)
"YL" (1.899439480180224e-01 -9.223660884988933e-05)
"YG" (-1.687549067882240e-13 8.233435193510588e-12)
"freq" 9.999999999999924e+00
"loopGain" (-1.872485695156473e+04 1.047271415346348e+03)
"ZL" (-1.538043258841171e+13 -1.163047385559935e+11)
"ZG" (-8.184835139626304e+08 -5.198785259286635e+07)
"YL" (1.899439363812054e-01 -1.034911709511920e-04)
"YG" (5.033325559609299e-15 9.237983747150577e-12)
"freq" 1.122018454301955e+01
"loopGain" (-1.870975061263390e+04 1.174109891766719e+03)
"ZL" (-2.921721252678593e+13 -4.709565966247935e+11)
"ZG" (-1.553904580925671e+09 -1.226837017081514e+08)
"YL" (1.899439217333354e-01 -1.161189947034487e-04)
"YG" (6.336576061854567e-15 1.036517942702676e-11)
"freq" 1.258925411794157e+01
"loopGain" (-1.869076700861235e+04 1.316036303466565e+03)
"ZL" (-2.550841876450640e+13 -4.029897689366976e+11)
"ZG" (-1.356517045125757e+09 -1.170731118203946e+08)
"YL" (1.899439032921876e-01 -1.302876422373224e-04)
"YG" (3.534831868905564e-13 1.162963153356846e-11)
"freq" 1.412537544622743e+01
"loopGain" (-1.866692425477032e+04 1.474733490480299e+03)
"ZL" (-1.626288053665985e+13 -1.837149937337885e+11)
"ZG" (-8.650371849116563e+08 -7.818071105940036e+07)
"YL" (1.899438800752511e-01 -1.461851210514315e-04)
"YG" (1.004268014635438e-14 1.304883691244042e-11)
"freq" 1.584893192461101e+01
"loopGain" (-1.863699346680537e+04 1.652025132419797e+03)
"ZL" (-1.618746893168579e+13 -2.038355165798645e+11)
"ZG" (-8.608331204792814e+08 -8.724208502298546e+07)
"YL" (1.899438508481766e-01 -1.640223782313268e-04)
"YG" (1.264322768158462e-14 1.464131658895855e-11)
"freq" 1.778279410038909e+01
"loopGain" (-1.859944922387405e+04 1.849868722189088e+03)
"ZL" (-3.644591036796927e+13 -1.161231891539264e+12)
"ZG" (-1.934173437395297e+09 -2.548000161738825e+08)
"YL" (1.899438140517566e-01 -1.840360994089481e-04)
"YG" (-1.568362790825093e-13 1.642771904839391e-11)
"freq" 1.995262314968863e+01
"loopGain" (-1.855239813320902e+04 2.070336371232394e+03)
"ZL" (-3.306287776435651e+13 -1.073359726311651e+12)
"ZG" (-1.753837864353072e+09 -2.535701426138731e+08)
"YL" (1.899437677305451e-01 -2.064918493290577e-04)
"YG" (-1.527147596787689e-13 1.843244456829223e-11)
"freq" 2.238721138568321e+01
"loopGain" (-1.849350134903800e+04 2.315581274019881e+03)
"ZL" (-6.675547688599227e+13 -4.935478062680699e+12)
"ZG" (-3.521055010740541e+09 -7.077422051042005e+08)
"YL" (1.899437094122146e-01 -2.316875942840185e-04)
"YG" (2.522614674734825e-14 2.068107414159540e-11)
"freq" 2.511886431509559e+01
"loopGain" (-1.841988483862060e+04 2.587782947551034e+03)
"ZL" (-2.229079321256979e+13 -6.131750360772367e+11)
"ZG" (-1.182139813604476e+09 -1.993631305696592e+08)
"YL" (1.899436359965765e-01 -2.599576555936661e-04)
"YG" (3.175782526251946e-14 2.320453816365874e-11)
"freq" 2.818382931264430e+01
"loopGain" (-1.832803620777030e+04 2.889062459257349e+03)
"ZL" (-2.048531308340677e+13 -5.819792319337413e+11)
"ZG" (-1.085721011803705e+09 -2.028937132683556e+08)
"YL" (1.899435435709866e-01 -2.916771444628110e-04)
"YG" (3.998093384076810e-14 2.603605071921725e-11)
"freq" 3.162277660168353e+01
"loopGain" (-1.821370022730516e+04 3.221360029148379e+03)
"ZL" (-1.714754701077298e+13 -4.572152548675965e+11)
"ZG" (-9.086024209804682e+08 -1.857998318452226e+08)
"YL" (1.899434272131532e-01 -3.272669376552776e-04)
"YG" (-1.224198801000066e-13 2.921302220350933e-11)
"freq" 3.548133892335724e+01
"loopGain" (-1.807177177197808e+04 3.586261116731460e+03)
"ZL" (-3.923146280686692e+13 -2.695673592205220e+12)
"ZG" (-2.060139656864742e+09 -5.579833750092031e+08)
"YL" (1.899432807290432e-01 -3.671992595388555e-04)
"YG" (-1.093876243784203e-13 3.277740402498291e-11)
"freq" 3.981071705534938e+01
"loopGain" (-1.789620926272405e+04 3.984761650432829e+03)
"ZL" (1.504516409924485e+14 -4.899430819303230e+13)
"ZG" (8.590566669736513e+09 -8.249475361814882e+08)
"YL" (1.899430963163031e-01 -4.120039442901317e-04)
"YG" (-2.657325536797655e-13 3.677740690523154e-11)
"freq" 4.466835921509592e+01
"loopGain" (-1.767998028319606e+04 4.416957524958894e+03)
"ZL" (-4.300167938890115e+13 -4.100832697129831e+12)
"ZG" (-2.234795487378210e+09 -7.902531545319155e+08)
"YL" (1.899428641549971e-01 -4.622754617114529e-04)
"YG" (-7.232587746998521e-14 4.126419942197774e-11)
"freq" 5.011872336272678e+01
"loopGain" (-1.741508269316683e+04 4.881656145344028e+03)
"ZL" (-8.824268206148688e+13 -2.016877644741725e+13)
"ZG" (-4.396910210108208e+09 -2.390604865036419e+09)
"YL" (1.899425718811408e-01 -5.186807984021071e-04)
"YG" (-2.190732966089732e-13 4.630010292523343e-11)
"freq" 5.623413251903440e+01
"loopGain" (-1.709267337843951e+04 5.375908477460036e+03)
"ZL" (2.051460774968750e+13 -1.166413408959303e+12)
"ZG" (1.111692706771798e+09 2.813983794270815e+08)
"YL" (1.899422039311537e-01 -5.819682967172525e-04)
"YG" (-1.358498665918405e-14 5.194911060612973e-11)
"freq" 6.309573444801875e+01
"loopGain" (-1.670337194101841e+04 5.894491316863520e+03)
"ZL" (-1.286678272746322e+14 -6.397269227857230e+13)
"ZG" (-5.648189644603429e+09 -5.823083052593298e+09)
"YL" (1.899417407132415e-01 -6.529775704903424e-04)
"YG" (2.762999766353270e-14 5.828853808450125e-11)
"freq" 7.079457843841314e+01
"loopGain" (-1.623778245820430e+04 6.429382986704622e+03)
"ZL" (-4.809052694470074e+13 -8.294985218052789e+12)
"ZG" (-2.385399088808809e+09 -1.455330604664794e+09)
"YL" (1.899411575576677e-01 -7.326506273390373e-04)
"YG" (-2.659916013451195e-13 6.540087568505428e-11)
"freq" 7.943282347242742e+01
"loopGain" (-1.568729353273248e+04 6.969330629664215e+03)