HEADER
"PSFversion" "1.00"
"simulator" "spectre"
"version" "25.1.0.235.isr5"
"date" "6:49:47 PM, Fri Jul 17, 2026"
"design" "// Point Netlist Generated on: Jul 17 08:06:02 2026"
"analysis type" "ac"
"analysis name" "ac"
"analysis description" "AC Analysis `ac': freq = (1 mHz -> 10 GHz)"
"xVecSorted" "ascending"
"tolerance.relative" 1.000000000000000e-03
"start" 1.000000000000000e-03
"stop" 1.000000000000000e+10
"operating point producer" "ac"
TYPE
"sweep" FLOAT DOUBLE PROP(
"key" "sweep"
)
"V" COMPLEX DOUBLE PROP(
"units" "V"
"key" "node"
"tolerance" 1.000000000000000e-06
)
"I" COMPLEX DOUBLE PROP(
"units" "A"
"key" "branch"
"tolerance" 1.000000000000000e-12
)
"MMF" COMPLEX DOUBLE PROP(
"units" "A*turn"
"key" "node"
"tolerance" 1.000000000000000e-12
)
"Wb" COMPLEX DOUBLE PROP(
"units" "Wb"
"key" "node"
"tolerance" 1.000000000000000e-09
)
"Temp" COMPLEX DOUBLE PROP(
"units" "C"
"key" "node"
"tolerance" 1.000000000000000e-04
)
"Pwr" COMPLEX DOUBLE PROP(
"units" "W"
"key" "node"
"tolerance" 1.000000000000000e-09
)
"U" COMPLEX DOUBLE PROP(
"units" ""
"key" "node"
"tolerance" 1.000000000000000e-06
)
"V/Sec" COMPLEX DOUBLE PROP(
"units" "V/s"
"key" "node"
"tolerance" 9.999999999999999e-05
)
"I/Sec" COMPLEX DOUBLE PROP(
"units" "A/s"
"key" "node"
"tolerance" 1.000000000000000e-06
)
"1/Sec" COMPLEX DOUBLE PROP(
"units" "1/s"
"key" "node"
"tolerance" 9.999999999999999e-05
)
"HOD" COMPLEX DOUBLE PROP(
"units" ""
"key" "node"
"tolerance" 1.000000000000000e-02
)
"Q" COMPLEX DOUBLE PROP(
"units" "Coul"
"key" "node"
"tolerance" 1.000000000000000e-15
)
"Efield" COMPLEX DOUBLE PROP(
"units" "V/m"
"key" "node"
"tolerance" 1.000000000000000e-06
"sigtype" "optical"
)
SWEEP
"freq" "sweep" PROP(
"sweep_direction" 0
"units" "Hz"
"plot" 0
"grid" 3
)
TRACE
"vdd!" "V"
"vout" "V"
"vin_dm" "V"
"vin_cm" "V"
"vin_p" "V"
"net1" "V"
"vbn" "V"
"vin_n" "V"
"I0.tail" "V"
"I0.outd" "V"
"I0.mirr" "V"
"I0.net1" "V"
"VINC:p" "I"
"VIND:p" "I"
"VSUP:p" "I"
VALUE
"freq" 1.000000000000000e-03
"vdd!" (0.000000000000000e+00 0.000000000000000e+00)
"vout" (1.878492409206808e+04 -1.050613636345212e-01)
"vin_dm" (1.000000000000000e+00 0.000000000000000e+00)
"vin_cm" (0.000000000000000e+00 0.000000000000000e+00)
"vin_p" (5.000000000000000e-01 0.000000000000000e+00)
"net1" (-5.000000000000000e-01 0.000000000000000e+00)
"vbn" (3.187109180386237e-14 5.698523916044681e-09)
"vin_n" (-5.000000000000000e-01 -0.000000000000000e+00)
"I0.tail" (-3.559456011922423e-01 1.988285168859817e-06)
"I0.outd" (-1.765626468503641e+02 9.851400483080349e-04)
"I0.mirr" (8.847006760599223e-02 3.258861226604306e-06)
"I0.net1" (-1.765626468503641e+02 9.851400483080349e-04)
"VINC:p" (-7.706247321968063e-20 -1.376241453687181e-14)
"VIND:p" (-2.500000033776262e-12 -7.402341746905127e-15)
"VSUP:p" (-1.395846241894667e-01 7.800598624289894e-07)
"freq" 1.122018454301963e-03
"vdd!" (0.000000000000000e+00 0.000000000000000e+00)
"vout" (1.878492409191595e+04 -1.178807888311074e-01)
"vin_dm" (1.000000000000000e+00 0.000000000000000e+00)
"vin_cm" (0.000000000000000e+00 0.000000000000000e+00)
"vin_p" (5.000000000000000e-01 0.000000000000000e+00)
"net1" (-5.000000000000000e-01 0.000000000000000e+00)
"vbn" (4.012332737318221e-14 6.393848996031443e-09)
"vin_n" (-5.000000000000000e-01 -0.000000000000000e+00)
"I0.tail" (-3.559456011893630e-01 2.230892651857543e-06)
"I0.outd" (-1.765626468489376e+02 1.105345314264591e-03)
"I0.mirr" (8.847006761071133e-02 3.656502436229549e-06)
"I0.net1" (-1.765626468489376e+02 1.105345314264591e-03)
"VINC:p" (-9.701590591118571e-20 -1.544168308599856e-14)
"VIND:p" (-2.500000042521795e-12 -8.305564045022505e-15)
"VSUP:p" (-1.395846241883370e-01 8.752415610984887e-07)
"freq" 1.258925411794167e-03
"vdd!" (0.000000000000000e+00 0.000000000000000e+00)
"vout" (1.878492409172441e+04 -1.322644204748266e-01)
"vin_dm" (1.000000000000000e+00 0.000000000000000e+00)
"vin_cm" (0.000000000000000e+00 0.000000000000000e+00)
"vin_p" (5.000000000000000e-01 0.000000000000000e+00)
"net1" (-5.000000000000000e-01 0.000000000000000e+00)
"vbn" (5.051227643532052e-14 7.174016567494207e-09)
"vin_n" (-5.000000000000000e-01 -0.000000000000000e+00)
"I0.tail" (-3.559456011857383e-01 2.503102724925286e-06)
"I0.outd" (-1.765626468471416e+02 1.240217840968429e-03)
"I0.mirr" (8.847006761665256e-02 4.102663211607811e-06)
"I0.net1" (-1.765626468471416e+02 1.240217840968429e-03)
"VINC:p" (-1.221357892562233e-19 -1.732585338779601e-14)
"VIND:p" (-2.500000053531768e-12 -9.318996131824594e-15)
"VSUP:p" (-1.395846241869149e-01 9.820371835145505e-07)
"freq" 1.412537544622754e-03
"vdd!" (0.000000000000000e+00 0.000000000000000e+00)
"vout" (1.878492409148330e+04 -1.484031206184052e-01)
"vin_dm" (1.000000000000000e+00 0.000000000000000e+00)
"vin_cm" (0.000000000000000e+00 0.000000000000000e+00)
"vin_p" (5.000000000000000e-01 0.000000000000000e+00)
"net1" (-5.000000000000000e-01 0.000000000000000e+00)
"vbn" (6.359118841118052e-14 8.049378980093212e-09)
"vin_n" (-5.000000000000000e-01 -0.000000000000000e+00)
"I0.tail" (-3.559456011811751e-01 2.808527450343656e-06)
"I0.outd" (-1.765626468448807e+02 1.391547304903255e-03)
"I0.mirr" (8.847006762413157e-02 4.603263835150645e-06)
"I0.net1" (-1.765626468448807e+02 1.391547304903255e-03)
"VINC:p" (-1.537598486877279e-19 -1.943992723738750e-14)
"VIND:p" (-2.500000067392503e-12 -1.045608563536631e-14)
"VSUP:p" (-1.395846241851247e-01 1.101863842699908e-06)
"freq" 1.584893192461113e-03
"vdd!" (0.000000000000000e+00 0.000000000000000e+00)
"vout" (1.878492409117973e+04 -1.665110400071600e-01)
"vin_dm" (1.000000000000000e+00 0.000000000000000e+00)
"vin_cm" (0.000000000000000e+00 0.000000000000000e+00)
"vin_p" (5.000000000000000e-01 0.000000000000000e+00)
"net1" (-5.000000000000000e-01 0.000000000000000e+00)
"vbn" (8.005656305573220e-14 9.031551761188948e-09)
"vin_n" (-5.000000000000000e-01 -0.000000000000000e+00)
"I0.tail" (-3.559456011754303e-01 3.151219628648299e-06)
"I0.outd" (-1.765626468420343e+02 1.561341756110381e-03)
"I0.mirr" (8.847006763354767e-02 5.164946972976387e-06)
"I0.net1" (-1.765626468420343e+02 1.561341756110381e-03)
"VINC:p" (-1.935721808168758e-19 -2.181195711028326e-14)
"VIND:p" (-2.500000084842135e-12 -1.173192104248800e-14)
"VSUP:p" (-1.395846241828708e-01 1.236311565617393e-06)
"freq" 1.778279410038922e-03
"vdd!" (0.000000000000000e+00 0.000000000000000e+00)
"vout" (1.878492409079758e+04 -1.868284597292455e-01)
"vin_dm" (1.000000000000000e+00 0.000000000000000e+00)
"vin_cm" (0.000000000000000e+00 0.000000000000000e+00)
"vin_p" (5.000000000000000e-01 0.000000000000000e+00)
"net1" (-5.000000000000000e-01 0.000000000000000e+00)
"vbn" (1.007852416097131e-13 1.013356774683125e-08)
"vin_n" (-5.000000000000000e-01 -0.000000000000000e+00)
"I0.tail" (-3.559456011681980e-01 3.535726576830045e-06)
"I0.outd" (-1.765626468384509e+02 1.751854263792446e-03)
"I0.mirr" (8.847006764540173e-02 5.795165819052678e-06)
"I0.net1" (-1.765626468384509e+02 1.751854263792446e-03)
"VINC:p" (-2.436929376031393e-19 -2.447341840168227e-14)
"VIND:p" (-2.500000106809921e-12 -1.316343191386658e-14)
"VSUP:p" (-1.395846241800334e-01 1.387164391861449e-06)
"freq" 1.995262314968878e-03
"vdd!" (0.000000000000000e+00 0.000000000000000e+00)
"vout" (1.878492409031648e+04 -2.096249795996560e-01)
"vin_dm" (1.000000000000000e+00 0.000000000000000e+00)
"vin_cm" (0.000000000000000e+00 0.000000000000000e+00)
"vin_p" (5.000000000000000e-01 0.000000000000000e+00)
"net1" (-5.000000000000000e-01 0.000000000000000e+00)
"vbn" (1.268811017930331e-13 1.137005001957262e-08)
"vin_n" (-5.000000000000000e-01 -0.000000000000000e+00)
"I0.tail" (-3.559456011590931e-01 3.967150468467620e-06)
"I0.outd" (-1.765626468339397e+02 1.965612813172364e-03)
"I0.mirr" (8.847006766032497e-02 6.502282994550532e-06)
"I0.net1" (-1.765626468339397e+02 1.965612813172364e-03)
"VINC:p" (-3.067912316611385e-19 -2.745962708583666e-14)
"VIND:p" (-2.500000134465723e-12 -1.476961352899711e-14)
"VSUP:p" (-1.395846241764613e-01 1.556424046779245e-06)
"freq" 2.238721138568338e-03
"vdd!" (0.000000000000000e+00 0.000000000000000e+00)
"vout" (1.878492408971080e+04 -2.352030955859033e-01)
"vin_dm" (1.000000000000000e+00 0.000000000000000e+00)
"vin_cm" (0.000000000000000e+00 0.000000000000000e+00)
"vin_p" (5.000000000000000e-01 0.000000000000000e+00)
"net1" (-5.000000000000000e-01 0.000000000000000e+00)
"vbn" (1.597338433185419e-13 1.275740594788555e-08)
"vin_n" (-5.000000000000000e-01 -0.000000000000000e+00)
"I0.tail" (-3.559456011476307e-01 4.451216036469833e-06)
"I0.outd" (-1.765626468282604e+02 2.205453850320682e-03)
"I0.mirr" (8.847006767911235e-02 7.295681514744301e-06)
"I0.net1" (-1.765626468282604e+02 2.205453850320682e-03)
"VINC:p" (-3.862272776361653e-19 -3.081020833756420e-14)
"VIND:p" (-2.500000169282316e-12 -1.657177894200678e-14)
"VSUP:p" (-1.395846241719643e-01 1.746336503149350e-06)
"freq" 2.511886431509578e-03
"vdd!" (0.000000000000000e+00 0.000000000000000e+00)
"vout" (1.878492408894830e+04 -2.639022137456202e-01)
"vin_dm" (1.000000000000000e+00 0.000000000000000e+00)
"vin_cm" (0.000000000000000e+00 0.000000000000000e+00)
"vin_p" (5.000000000000000e-01 0.000000000000000e+00)
"net1" (-5.000000000000000e-01 0.000000000000000e+00)
"vbn" (2.010929944690977e-13 1.431404490196819e-08)
"vin_n" (-5.000000000000000e-01 -0.000000000000000e+00)
"I0.tail" (-3.559456011332003e-01 4.994346536801270e-06)
"I0.outd" (-1.765626468211105e+02 2.474559920070681e-03)
"I0.mirr" (8.847006770276439e-02 8.185889295920536e-06)
"I0.net1" (-1.765626468211105e+02 2.474559920070681e-03)
"VINC:p" (-4.862313345341593e-19 -3.456962233423036e-14)
"VIND:p" (-2.500000213113809e-12 -1.859384179292851e-14)
"VSUP:p" (-1.395846241663029e-01 1.959421783875196e-06)
"freq" 2.818382931264451e-03
"vdd!" (0.000000000000000e+00 0.000000000000000e+00)
"vout" (1.878492408798838e+04 -2.961031539385967e-01)
"vin_dm" (1.000000000000000e+00 0.000000000000000e+00)
"vin_cm" (0.000000000000000e+00 0.000000000000000e+00)
"vin_p" (5.000000000000000e-01 0.000000000000000e+00)
"net1" (-5.000000000000000e-01 0.000000000000000e+00)
"vbn" (2.531610808579948e-13 1.606062253489453e-08)
"vin_n" (-5.000000000000000e-01 -0.000000000000000e+00)
"I0.tail" (-3.559456011150338e-01 5.603748981183781e-06)
"I0.outd" (-1.765626468121095e+02 2.776501896453420e-03)
"I0.mirr" (8.847006773254017e-02 9.184718854426416e-06)
"I0.net1" (-1.765626468121095e+02 2.776501896453420e-03)
"VINC:p" (-6.121289831916572e-19 -3.878775421527134e-14)
"VIND:p" (-2.500000268294390e-12 -2.086263362716712e-14)
"VSUP:p" (-1.395846241591756e-01 2.198507401156902e-06)
"freq" 3.162277660168376e-03
"vdd!" (0.000000000000000e+00 0.000000000000000e+00)
"vout" (1.878492408677989e+04 -3.322332030747476e-01)
"vin_dm" (1.000000000000000e+00 0.000000000000000e+00)
"vin_cm" (0.000000000000000e+00 0.000000000000000e+00)
"vin_p" (5.000000000000000e-01 0.000000000000000e+00)
"net1" (-5.000000000000000e-01 0.000000000000000e+00)
"vbn" (3.187109179489044e-13 1.802031487057034e-08)
"vin_n" (-5.000000000000000e-01 -0.000000000000000e+00)
"I0.tail" (-3.559456010921633e-01 6.287509769759543e-06)
"I0.outd" (-1.765626468007777e+02 3.115286366024726e-03)
"I0.mirr" (8.847006777002588e-02 1.030542405157866e-05)
"I0.net1" (-1.765626468007777e+02 3.115286366024726e-03)
"VINC:p" (-7.706247320958321e-19 -4.352057602766009e-14)
"VIND:p" (-2.500000337762625e-12 -2.340825993379362e-14)
"VSUP:p" (-1.395846241502028e-01 2.466765875858804e-06)
"freq" 3.548133892335751e-03
"vdd!" (0.000000000000000e+00 0.000000000000000e+00)
"vout" (1.878492408525850e+04 -3.727717849515285e-01)
"vin_dm" (1.000000000000000e+00 0.000000000000000e+00)
"vin_cm" (0.000000000000000e+00 0.000000000000000e+00)
"vin_p" (5.000000000000000e-01 0.000000000000000e+00)
"net1" (-5.000000000000000e-01 0.000000000000000e+00)
"vbn" (4.012332735896265e-13 2.021912583547448e-08)
"vin_n" (-5.000000000000000e-01 -0.000000000000000e+00)
"I0.tail" (-3.559456010633709e-01 7.054701992702749e-06)
"I0.outd" (-1.765626467865120e+02 3.495408792831957e-03)
"I0.mirr" (8.847006781721781e-02 1.156287596434210e-05)
"I0.net1" (-1.765626467865120e+02 3.495408792831957e-03)
"VINC:p" (-9.701590581021152e-19 -4.883088944092676e-14)
"VIND:p" (-2.500000425217952e-12 -2.626449962707827e-14)
"VSUP:p" (-1.395846241389068e-01 2.767756834931768e-06)
"freq" 3.981071705534968e-03
"vdd!" (0.000000000000000e+00 0.000000000000000e+00)
"vout" (1.878492408334319e+04 -4.182568219160537e-01)
"vin_dm" (1.000000000000000e+00 0.000000000000000e+00)
"vin_cm" (0.000000000000000e+00 0.000000000000000e+00)
"vin_p" (5.000000000000000e-01 0.000000000000000e+00)
"net1" (-5.000000000000000e-01 0.000000000000000e+00)
"vbn" (5.051227641278415e-13 2.268623231494288e-08)
"vin_n" (-5.000000000000000e-01 -0.000000000000000e+00)
"I0.tail" (-3.559456010271238e-01 7.915505824606281e-06)
"I0.outd" (-1.765626467685525e+02 3.921913170486938e-03)
"I0.mirr" (8.847006787662838e-02 1.297376021547367e-05)
"I0.net1" (-1.765626467685525e+02 3.921913170486938e-03)
"VINC:p" (-1.221357891552491e-18 -5.478915908710577e-14)
"VIND:p" (-2.500000535317685e-12 -2.946925327213748e-14)
"VSUP:p" (-1.395846241246860e-01 3.105474245497213e-06)
"freq" 4.466835921509626e-03
"vdd!" (0.000000000000000e+00 0.000000000000000e+00)
"vout" (1.878492408093196e+04 -4.692918727672655e-01)
"vin_dm" (1.000000000000000e+00 0.000000000000000e+00)
"vin_cm" (0.000000000000000e+00 0.000000000000000e+00)
"vin_p" (5.000000000000000e-01 0.000000000000000e+00)
"net1" (-5.000000000000000e-01 0.000000000000000e+00)
"vbn" (6.359118837546273e-13 2.545437131268013e-08)
"vin_n" (-5.000000000000000e-01 -0.000000000000000e+00)
"I0.tail" (-3.559456009814912e-01 8.881343609202948e-06)
"I0.outd" (-1.765626467459428e+02 4.400458952891439e-03)
"I0.mirr" (8.847006795142227e-02 1.455679838158161e-05)
"I0.net1" (-1.765626467459428e+02 4.400458952891439e-03)
"VINC:p" (-1.537598486473382e-18 -6.147444758351857e-14)
"VIND:p" (-2.500000673925037e-12 -3.306504600237413e-14)
"VSUP:p" (-1.395846241067831e-01 3.484399412360094e-06)
"freq" 5.011872336272717e-03
"vdd!" (0.000000000000000e+00 0.000000000000000e+00)
"vout" (1.878492407789639e+04 -5.265541416137144e-01)
"vin_dm" (1.000000000000000e+00 0.000000000000000e+00)
"vin_cm" (0.000000000000000e+00 0.000000000000000e+00)
"vin_p" (5.000000000000000e-01 0.000000000000000e+00)
"net1" (-5.000000000000000e-01 0.000000000000000e+00)
"vbn" (8.005656299912342e-13 2.856027435086636e-08)
"vin_n" (-5.000000000000000e-01 -0.000000000000000e+00)
"I0.tail" (-3.559456009240430e-01 9.965031426912247e-06)
"I0.outd" (-1.765626467174790e+02 4.937396151744648e-03)
"I0.mirr" (8.847006804558219e-02 1.633299641704823e-05)
"I0.net1" (-1.765626467174790e+02 4.937396151744648e-03)
"VINC:p" (-1.935721807562913e-18 -6.897546464556722e-14)
"VIND:p" (-2.500000848421354e-12 -3.709959180211602e-14)
"VSUP:p" (-1.395846240842446e-01 3.909560442195190e-06)
"freq" 5.623413251903483e-03
"vdd!" (0.000000000000000e+00 0.000000000000000e+00)
"vout" (1.878492407407485e+04 -5.908034639595287e-01)
"vin_dm" (1.000000000000000e+00 0.000000000000000e+00)
"vin_cm" (0.000000000000000e+00 0.000000000000000e+00)
"vin_p" (5.000000000000000e-01 0.000000000000000e+00)
"net1" (-5.000000000000000e-01 0.000000000000000e+00)
"vbn" (1.007852415199942e-12 3.204515487507990e-08)
"vin_n" (-5.000000000000000e-01 -0.000000000000000e+00)
"I0.tail" (-3.559456008517204e-01 1.118094915642001e-05)
"I0.outd" (-1.765626466816450e+02 5.539849597330013e-03)
"I0.mirr" (8.847006816412212e-02 1.832592339024787e-05)
"I0.net1" (-1.765626466816450e+02 5.539849597330013e-03)
"VINC:p" (-2.436929373204116e-18 -7.739174421061604e-14)
"VIND:p" (-2.500001068099203e-12 -4.162642664213512e-14)
"VSUP:p" (-1.395846240558704e-01 4.386598963459577e-06)
"freq" 6.309573444801923e-03
"vdd!" (0.000000000000000e+00 0.000000000000000e+00)
"vout" (1.878492406926380e+04 -6.628923892583460e-01)
"vin_dm" (1.000000000000000e+00 0.000000000000000e+00)
"vin_cm" (0.000000000000000e+00 0.000000000000000e+00)
"vin_p" (5.000000000000000e-01 0.000000000000000e+00)
"net1" (-5.000000000000000e-01 0.000000000000000e+00)
"vbn" (1.268811016508384e-12 3.595525513159559e-08)
"vin_n" (-5.000000000000000e-01 -0.000000000000000e+00)
"I0.tail" (-3.559456007606716e-01 1.254523128690233e-05)
"I0.outd" (-1.765626466365328e+02 6.215813480669675e-03)
"I0.mirr" (8.847006831335520e-02 2.056202423071603e-05)
"I0.net1" (-1.765626466365328e+02 6.215813480669675e-03)
"VINC:p" (-3.067912313784108e-18 -8.683496519266248e-14)
"VIND:p" (-2.500001344657229e-12 -4.670561886936346e-14)
"VSUP:p" (-1.395846240201493e-01 4.921844987363001e-06)
"freq" 7.079457843841368e-03
"vdd!" (0.000000000000000e+00 0.000000000000000e+00)
"vout" (1.878492406320705e+04 -7.437774937243778e-01)
"vin_dm" (1.000000000000000e+00 0.000000000000000e+00)
"vin_cm" (0.000000000000000e+00 0.000000000000000e+00)
"vin_p" (5.000000000000000e-01 0.000000000000000e+00)
"net1" (-5.000000000000000e-01 0.000000000000000e+00)
"vbn" (1.597338430931782e-12 4.034245977377811e-08)
"vin_n" (-5.000000000000000e-01 -0.000000000000000e+00)
"I0.tail" (-3.559456006460475e-01 1.407598101285244e-05)
"I0.outd" (-1.765626465797398e+02 6.974257431561669e-03)
"I0.mirr" (8.847006850122884e-02 2.307097063722898e-05)
"I0.net1" (-1.765626465797398e+02 6.974257431561669e-03)
"VINC:p" (-3.862272771716840e-18 -9.743043339338455e-14)
"VIND:p" (-2.500001692823154e-12 -5.240456627723475e-14)
"VSUP:p" (-1.395846239751792e-01 5.522400903254378e-06)
"freq" 7.943282347242802e-03
"vdd!" (0.000000000000000e+00 0.000000000000000e+00)
"vout" (1.878492405558206e+04 -8.345320735144788e-01)
"vin_dm" (1.000000000000000e+00 0.000000000000000e+00)
"vin_cm" (0.000000000000000e+00 0.000000000000000e+00)
"vin_p" (5.000000000000000e-01 0.000000000000000e+00)
"net1" (-5.000000000000000e-01 0.000000000000000e+00)
"vbn" (2.010929941119208e-12 4.526498433974009e-08)
"vin_n" (-5.000000000000000e-01 -0.000000000000000e+00)
"I0.tail" (-3.559456005017447e-01 1.579351045241390e-05)
"I0.outd" (-1.765626465082418e+02 7.825245540088545e-03)
"I0.mirr" (8.847006873774747e-02 2.588605480312243e-05)
"I0.net1" (-1.765626465082418e+02 7.825245540088545e-03)
"VINC:p" (-4.862313337566580e-18 -1.093187442335895e-13)
"VIND:p" (-2.500002131138086e-12 -5.879889043327585e-14)
"VSUP:p" (-1.395846239185651e-01 6.196235722990196e-06)
"freq" 8.912509381337440e-03
"vdd!" (0.000000000000000e+00 0.000000000000000e+00)
"vout" (1.878492404598276e+04 -9.363603867116508e-01)
"vin_dm" (1.000000000000000e+00 0.000000000000000e+00)
"vin_cm" (0.000000000000000e+00 0.000000000000000e+00)
"vin_p" (5.000000000000000e-01 0.000000000000000e+00)
"net1" (-5.000000000000000e-01 0.000000000000000e+00)
"vbn" (2.531610802919074e-12 5.078814773692442e-08)
"vin_n" (-5.000000000000000e-01 -0.000000000000000e+00)
"I0.tail" (-3.559456003200781e-01 1.772061017676418e-05)
"I0.outd" (-1.765626464182310e+02 8.780069900936896e-03)
"I0.mirr" (8.847006903550664e-02 2.904463118333353e-05)
"I0.net1" (-1.765626464182310e+02 8.780069900936896e-03)
"VINC:p" (-6.121289817679210e-18 -1.226576483684501e-13)
"VIND:p" (-2.500002682943891e-12 -6.597344013110990e-14)
"VSUP:p" (-1.395846238472922e-01 6.952290824847472e-06)
"freq" 9.999999999999981e-03
"vdd!" (0.000000000000000e+00 0.000000000000000e+00)
"vout" (1.878492403389796e+04 -1.050613633091928e+00)
"vin_dm" (1.000000000000000e+00 0.000000000000000e+00)
"vin_cm" (0.000000000000000e+00 0.000000000000000e+00)
"vin_p" (5.000000000000000e-01 0.000000000000000e+00)
"net1" (-5.000000000000000e-01 0.000000000000000e+00)
"vbn" (3.187109170517167e-12 5.698523898398361e-08)
"vin_n" (-5.000000000000000e-01 -0.000000000000000e+00)
"I0.tail" (-3.559456000913733e-01 1.988285162702980e-05)
"I0.outd" (-1.765626463049142e+02 9.851400452574932e-03)
"I0.mirr" (8.847006941036364e-02 3.258861216512986e-05)
"I0.net1" (-1.765626463049142e+02 9.851400452574932e-03)
"VINC:p" (-7.706247299349843e-18 -1.376241449420401e-13)
"VIND:p" (-2.500003377626241e-12 -7.402341728203953e-14)
"VSUP:p" (-1.395846237575649e-01 7.800598600134902e-06)
"freq" 1.122018454301961e-02
"vdd!" (0.000000000000000e+00 0.000000000000000e+00)
"vout" (1.878492401868411e+04 -1.178807883715688e+00)
"vin_dm" (1.000000000000000e+00 0.000000000000000e+00)
"vin_cm" (0.000000000000000e+00 0.000000000000000e+00)
"vin_p" (5.000000000000000e-01 0.000000000000000e+00)
"net1" (-5.000000000000000e-01 0.000000000000000e+00)
"vbn" (4.012332721676802e-12 6.393848971105356e-08)
"vin_n" (-5.000000000000000e-01 -0.000000000000000e+00)
"I0.tail" (-3.559455998034513e-01 2.230892643160782e-05)
"I0.outd" (-1.765626461622568e+02 1.105345309955587e-02)
"I0.mirr" (8.847006988228047e-02 3.656502421975185e-05)
"I0.net1" (-1.765626461622568e+02 1.105345309955587e-02)
"VINC:p" (-9.701590546992848e-18 -1.544168302572871e-13)
"VIND:p" (-2.500004252179503e-12 -8.305564018606399e-14)
"VSUP:p" (-1.395846236446051e-01 8.752415576865060e-06)
"freq" 1.258925411794165e-02
"vdd!" (0.000000000000000e+00 0.000000000000000e+00)
"vout" (1.878492399953098e+04 -1.322644198257113e+00)
"vin_dm" (1.000000000000000e+00 0.000000000000000e+00)
"vin_cm" (0.000000000000000e+00 0.000000000000000e+00)
"vin_p" (5.000000000000000e-01 0.000000000000000e+00)
"net1" (-5.000000000000000e-01 0.000000000000000e+00)
"vbn" (5.051227618742085e-12 7.174016532285180e-08)
"vin_n" (-5.000000000000000e-01 -0.000000000000000e+00)
"I0.tail" (-3.559455994409787e-01 2.503102712640787e-05)
"I0.outd" (-1.765626459826617e+02 1.240217834881800e-02)
"I0.mirr" (8.847007047638861e-02 4.102663191472988e-05)
"I0.net1" (-1.765626459826617e+02 1.240217834881800e-02)
"VINC:p" (-1.221357886190761e-17 -1.732585330266260e-13)
"VIND:p" (-2.500005353176826e-12 -9.318996094510856e-14)
"VSUP:p" (-1.395846235023970e-01 9.820371786949977e-06)
"freq" 1.412537544622751e-02
"vdd!" (0.000000000000000e+00 0.000000000000000e+00)
"vout" (1.878492397541864e+04 -1.484031197015054e+00)
"vin_dm" (1.000000000000000e+00 0.000000000000000e+00)
"vin_cm" (0.000000000000000e+00 0.000000000000000e+00)
"vin_p" (5.000000000000000e-01 0.000000000000000e+00)
"net1" (-5.000000000000000e-01 0.000000000000000e+00)
"vbn" (6.359118801828604e-12 8.049378930359137e-08)
"vin_n" (-5.000000000000000e-01 -0.000000000000000e+00)
"I0.tail" (-3.559455989846529e-01 2.808527432991338e-05)
"I0.outd" (-1.765626457565649e+02 1.391547296305663e-02)
"I0.mirr" (8.847007122432604e-02 4.603263806709447e-05)
"I0.net1" (-1.765626457565649e+02 1.391547296305663e-02)
"VINC:p" (-1.537598477840088e-17 -1.943992711713335e-13)
"VIND:p" (-2.500006739250332e-12 -1.045608558265926e-13)
"VSUP:p" (-1.395846233233675e-01 1.101863835892108e-05)
"freq" 1.584893192461110e-02
"vdd!" (0.000000000000000e+00 0.000000000000000e+00)
"vout" (1.878492394506300e+04 -1.665110387120048e+00)
"vin_dm" (1.000000000000000e+00 0.000000000000000e+00)
"vin_cm" (0.000000000000000e+00 0.000000000000000e+00)
"vin_p" (5.000000000000000e-01 0.000000000000000e+00)
"net1" (-5.000000000000000e-01 0.000000000000000e+00)
"vbn" (8.005656243303653e-12 9.031551690937712e-08)
"vin_n" (-5.000000000000000e-01 -0.000000000000000e+00)
"I0.tail" (-3.559455984101728e-01 3.151219604137502e-05)
"I0.outd" (-1.765626454719259e+02 1.561341743965962e-02)
"I0.mirr" (8.847007216592370e-02 5.164946932802138e-05)
"I0.net1" (-1.765626454719259e+02 1.561341743965962e-02)
"VINC:p" (-1.935721793769838e-17 -2.181195694041979e-13)
"VIND:p" (-2.500008484213485e-12 -1.173192096803732e-13)
"VSUP:p" (-1.395846230979829e-01 1.236311556001121e-05)
"freq" 1.778279410038919e-02
"vdd!" (0.000000000000000e+00 0.000000000000000e+00)
"vout" (1.878492390684749e+04 -1.868284578997899e+00)
"vin_dm" (1.000000000000000e+00 0.000000000000000e+00)
"vin_cm" (0.000000000000000e+00 0.000000000000000e+00)
"vin_p" (5.000000000000000e-01 0.000000000000000e+00)
"net1" (-5.000000000000000e-01 0.000000000000000e+00)
"vbn" (1.007852406228070e-11 1.013356764759873e-07)
"vin_n" (-5.000000000000000e-01 -0.000000000000000e+00)
"I0.tail" (-3.559455976869449e-01 3.535726542207621e-05)
"I0.outd" (-1.765626451135866e+02 1.751854246637996e-02)
"I0.mirr" (8.847007335132524e-02 5.795165762305037e-05)
"I0.net1" (-1.765626451135866e+02 1.751854246637996e-02)
"VINC:p" (-2.436929351383592e-17 -2.447341816174375e-13)
"VIND:p" (-2.500010680991934e-12 -1.316343180870221e-13)
"VSUP:p" (-1.395846228142404e-01 1.387164378278104e-05)
"freq" 1.995262314968875e-02
"vdd!" (0.000000000000000e+00 0.000000000000000e+00)
"vout" (1.878492385873704e+04 -2.096249770154815e+00)
"vin_dm" (1.000000000000000e+00 0.000000000000000e+00)
"vin_cm" (0.000000000000000e+00 0.000000000000000e+00)
"vin_p" (5.000000000000000e-01 0.000000000000000e+00)
"net1" (-5.000000000000000e-01 0.000000000000000e+00)
"vbn" (1.268811002288925e-11 1.137004987940298e-07)
"vin_n" (-5.000000000000000e-01 -0.000000000000000e+00)
"I0.tail" (-3.559455967764551e-01 3.967150419562148e-05)
"I0.outd" (-1.765626446624642e+02 1.965612788941060e-02)
"I0.mirr" (8.847007484365728e-02 6.502282914392362e-05)
"I0.net1" (-1.765626446624642e+02 1.965612788941060e-02)
"VINC:p" (-3.067912279331712e-17 -2.745962674691450e-13)
"VIND:p" (-2.500013446572134e-12 -1.476961338044849e-13)
"VSUP:p" (-1.395846224570298e-01 1.556424027592260e-05)
"freq" 2.238721138568334e-02
"vdd!" (0.000000000000000e+00 0.000000000000000e+00)
"vout" (1.878492379816957e+04 -2.352030919356600e+00)
"vin_dm" (1.000000000000000e+00 0.000000000000000e+00)
"vin_cm" (0.000000000000000e+00 0.000000000000000e+00)
"vin_p" (5.000000000000000e-01 0.000000000000000e+00)
"net1" (-5.000000000000000e-01 0.000000000000000e+00)
"vbn" (1.597338408395461e-11 1.275740574989068e-07)
"vin_n" (-5.000000000000000e-01 -0.000000000000000e+00)
"I0.tail" (-3.559455956302165e-01 4.451215967389025e-05)
"I0.outd" (-1.765626440945347e+02 2.205453816093058e-02)
"I0.mirr" (8.847007672239161e-02 7.295681401517888e-05)
"I0.net1" (-1.765626440945347e+02 2.205453816093058e-02)
"VINC:p" (-3.862272717170580e-17 -3.081020785882394e-13)
"VIND:p" (-2.500016928231307e-12 -1.657177873217629e-13)
"VSUP:p" (-1.395846220073282e-01 1.746336476047016e-05)
"freq" 2.511886431509574e-02
"vdd!" (0.000000000000000e+00 0.000000000000000e+00)
"vout" (1.878492372191964e+04 -2.639022085895148e+00)
"vin_dm" (1.000000000000000e+00 0.000000000000000e+00)
"vin_cm" (0.000000000000000e+00 0.000000000000000e+00)
"vin_p" (5.000000000000000e-01 0.000000000000000e+00)
"net1" (-5.000000000000000e-01 0.000000000000000e+00)
"vbn" (2.010929905401547e-11 1.431404462229301e-07)
"vin_n" (-5.000000000000000e-01 -0.000000000000000e+00)
"I0.tail" (-3.559455941871873e-01 4.994346439222039e-05)
"I0.outd" (-1.765626433795539e+02 2.474559871722881e-02)
"I0.mirr" (8.847007908757856e-02 8.185889135983981e-05)
"I0.net1" (-1.765626433795539e+02 2.474559871722881e-02)
"VINC:p" (-4.862313251173058e-17 -3.456962165799179e-13)
"VIND:p" (-2.500021311380483e-12 -1.859384149653509e-13)
"VSUP:p" (-1.395846214411875e-01 1.959421745592134e-05)
"freq" 2.818382931264447e-02
"vdd!" (0.000000000000000e+00 0.000000000000000e+00)
"vout" (1.878492362592665e+04 -2.961031466554039e+00)
"vin_dm" (1.000000000000000e+00 0.000000000000000e+00)
"vin_cm" (0.000000000000000e+00 0.000000000000000e+00)
"vin_p" (5.000000000000000e-01 0.000000000000000e+00)
"net1" (-5.000000000000000e-01 0.000000000000000e+00)
"vbn" (2.531610746310396e-11 1.606062213984283e-07)
"vin_n" (-5.000000000000000e-01 -0.000000000000000e+00)
"I0.tail" (-3.559455923705214e-01 5.603748843349447e-05)
"I0.outd" (-1.765626424794463e+02 2.776501828160333e-02)
"I0.mirr" (8.847008206517186e-02 9.184718628510020e-05)
"I0.net1" (-1.765626424794463e+02 2.776501828160333e-02)
"VINC:p" (-6.121289680738006e-17 -3.878775326005899e-13)
"VIND:p" (-2.500026829438313e-12 -2.086263320850028e-13)
"VSUP:p" (-1.395846207284587e-01 2.198507347080636e-05)
"freq" 3.162277660168371e-02
"vdd!" (0.000000000000000e+00 0.000000000000000e+00)
"vout" (1.878492350507866e+04 -3.322331927869649e+00)
"vin_dm" (1.000000000000000e+00 0.000000000000000e+00)
"vin_cm" (0.000000000000000e+00 0.000000000000000e+00)
"vin_p" (5.000000000000000e-01 0.000000000000000e+00)
"net1" (-5.000000000000000e-01 0.000000000000000e+00)
"vbn" (3.187109080798462e-11 1.802031431254502e-07)
"vin_n" (-5.000000000000000e-01 -0.000000000000000e+00)
"I0.tail" (-3.559455900834746e-01 6.287509575063386e-05)
"I0.outd" (-1.765626413462782e+02 3.115286269558184e-02)
"I0.mirr" (8.847008581374022e-02 1.030542373246329e-04)
"I0.net1" (-1.765626413462782e+02 3.115286269558184e-02)
"VINC:p" (-7.706247082457270e-17 -4.352057467838683e-13)
"VIND:p" (-2.500033776261459e-12 -2.340825934241101e-13)
"VSUP:p" (-1.395846198311862e-01 2.466765799474052e-05)
"freq" 3.548133892335745e-02
"vdd!" (0.000000000000000e+00 0.000000000000000e+00)
"vout" (1.878492335294005e+04 -3.727717704196498e+00)
"vin_dm" (1.000000000000000e+00 0.000000000000000e+00)
"vin_cm" (0.000000000000000e+00 0.000000000000000e+00)
"vin_p" (5.000000000000000e-01 0.000000000000000e+00)
"net1" (-5.000000000000000e-01 0.000000000000000e+00)
"vbn" (4.012332579482240e-11 2.021912504724277e-07)
"vin_n" (-5.000000000000000e-01 -0.000000000000000e+00)
"I0.tail" (-3.559455872042534e-01 7.054701717687124e-05)
"I0.outd" (-1.765626399197039e+02 3.495408656569350e-02)
"I0.mirr" (8.847009053290730e-02 1.156287551357967e-04)
"I0.net1" (-1.765626399197039e+02 3.495408656569350e-02)
"VINC:p" (-9.701590203105029e-17 -4.883088753502767e-13)
"VIND:p" (-2.500042521793521e-12 -2.626449879172814e-13)
"VSUP:p" (-1.395846187015871e-01 2.767756727035444e-05)
"freq" 3.981071705534961e-02
"vdd!" (0.000000000000000e+00 0.000000000000000e+00)
"vout" (1.878492316140889e+04 -4.182568013892293e+00)
"vin_dm" (1.000000000000000e+00 0.000000000000000e+00)
"vin_cm" (0.000000000000000e+00 0.000000000000000e+00)
"vin_p" (5.000000000000000e-01 0.000000000000000e+00)
"net1" (-5.000000000000000e-01 0.000000000000000e+00)
"vbn" (5.051227393378891e-11 2.268623120153600e-07)
"vin_n" (-5.000000000000000e-01 -0.000000000000000e+00)
"I0.tail" (-3.559455835795284e-01 7.915505436136388e-05)