HEADER
"PSFversion" "1.00"
"simulator" "spectre"
"version" "25.1.0.235.isr5"
"date" "9:29:00 PM, Sun Jul 12, 2026"
"design" "// Point Netlist Generated on: Jul 12 18:56:19 2026"
"analysis type" "dc"
"analysis name" "dcOp"
"analysis description" "DC Analysis `dcOp'"
"xVecSorted" "unsorted"
"tolerance.relative" 1.000000000000000e-03
"reltol" 1.000000000000000e-03
"abstol(V)" 1.000000000000000e-06
"abstol(I)" 1.000000000000000e-12
"temp" 2.700000000000000e+01
"tnom" 2.700000000000000e+01
"tempeffects" "all"
"gmindc" 1.000000000000000e-12
TYPE
"LogicV" FLOAT DOUBLE PROP(
"key" "node"
)
"V" FLOAT DOUBLE PROP(
"units" "V"
"key" "node"
"tolerance" 1.000000000000000e-06
)
"I" FLOAT DOUBLE PROP(
"units" "A"
"key" "branch"
"tolerance" 1.000000000000000e-12
)
"MMF" FLOAT DOUBLE PROP(
"units" "A*turn"
"key" "node"
"tolerance" 1.000000000000000e-12
)
"Wb" FLOAT DOUBLE PROP(
"units" "Wb"
"key" "node"
"tolerance" 1.000000000000000e-09
)
"Temp" FLOAT DOUBLE PROP(
"units" "C"
"key" "node"
"tolerance" 1.000000000000000e-04
)
"Pwr" FLOAT DOUBLE PROP(
"units" "W"
"key" "node"
"tolerance" 1.000000000000000e-09
)
"U" FLOAT DOUBLE PROP(
"units" ""
"key" "node"
"tolerance" 1.000000000000000e-06
)
"V/Sec" FLOAT DOUBLE PROP(
"units" "V/s"
"key" "node"
"tolerance" 9.999999999999999e-05
)
"I/Sec" FLOAT DOUBLE PROP(
"units" "A/s"
"key" "node"
"tolerance" 1.000000000000000e-06
)
"1/Sec" FLOAT DOUBLE PROP(
"units" "1/s"
"key" "node"
"tolerance" 9.999999999999999e-05
)
"HOD" FLOAT DOUBLE PROP(
"units" ""
"key" "node"
"tolerance" 1.000000000000000e-02
)
"Q" FLOAT DOUBLE PROP(
"units" "Coul"
"key" "node"
"tolerance" 1.000000000000000e-15
)
"Efield" FLOAT DOUBLE PROP(
"units" "V/m"
"key" "node"
"tolerance" 1.000000000000000e-06
"sigtype" "optical"
)
VALUE
"vdd!" "V" 1.500000000000000e+00
"vout" "V" 7.497212639345875e-01
"vin_dm" "V" 0.000000000000000e+00
"vin_cm" "V" 7.500000000000000e-01
"vin_p" "V" 7.500000000000000e-01
"net1" "V" 7.500000000000000e-01
"vbn" "V" 4.198052207901349e-01
"vin_n" "V" 7.497212639345875e-01
"I0.tail" "V" 2.805031029754774e-01
"I0.outd" "V" 9.977116848132113e-01
"I0.mirr" "V" 1.018203399309681e+00
"VINC:p" "I" -3.021618619947484e-12
"VIND:p" "I" -1.510809309973742e-12
"VSUP:p" "I" -1.634505204023188e-04
END
