HEADER
"PSFversion" "1.00"
"simulator" "spectre"
"version" "25.1.0.235.isr5"
"date" "9:13:52 AM, Sun Jul 19, 2026"
"design" "// tb_fdota_stb_dm.scs (SKY130) -- fully-differential two-stage OTA with"
"analysis type" "stb"
"analysis name" "stb"
"analysis description" "Stability Analysis `stb': freq = (1 mHz -> 10 GHz)"
"xVecSorted" "ascending"
"tolerance.relative" 1.000000000000000e-03
"operating point producer" "stb"
"probe" "FDPRB.IPRB_DM"
"marginFilename" "stb.margin.stb"
TYPE
"sweep" FLOAT DOUBLE PROP(
"key" "sweep"
)
"LOOPGAIN" COMPLEX DOUBLE PROP(
"key" "gain"
)
"IMPEDANCE" COMPLEX DOUBLE PROP(
"key" "advprobe"
)
"ADMITTANCE" COMPLEX DOUBLE PROP(
"key" "advprobe"
)
SWEEP
"freq" "sweep" PROP(
"sweep_direction" 0
"units" "Hz"
"plot" 0
"grid" 3
)
TRACE
"loopGain" "LOOPGAIN"
"ZL" "IMPEDANCE"
"ZG" "IMPEDANCE"
"YL" "ADMITTANCE"
"YG" "ADMITTANCE"
VALUE
"freq" 1.000000000000000e-03
"loopGain" (-5.899331130009689e+03 2.076955194699749e-02)
"ZL" (3.133473244026470e+09 -1.748275584074205e+04)
"ZG" (3.333330555557868e+05 -2.020775149989104e-03)
"YL" (4.752917996679367e-02 -2.601909361120917e-09)
"YG" (3.000002500000002e-06 1.818700666117908e-14)
"freq" 1.122018454301963e-03
"loopGain" (-5.899331129998489e+03 2.330382057210061e-02)
"ZL" (3.133473244014112e+09 -1.961597468537081e+04)
"ZG" (3.333330555564599e+05 -2.267347014455689e-03)
"YL" (4.752917996679363e-02 -2.919390319598697e-09)
"YG" (3.000002500000001e-06 2.040615710235570e-14)
"freq" 1.258925411794167e-03
"loopGain" (-5.899331129966928e+03 2.614731673746456e-02)
"ZL" (3.133473243969486e+09 -2.200948559570273e+04)
"ZG" (3.333330555557868e+05 -2.544005187792841e-03)
"YL" (4.752917996679359e-02 -3.275609813900242e-09)
"YG" (3.000002500000002e-06 2.289608485022805e-14)
"freq" 1.412537544622754e-03
"loopGain" (-5.899331129944655e+03 2.933777190984080e-02)
"ZL" (3.133473243942373e+09 -2.469504900795922e+04)
"ZG" (3.333330555564598e+05 -2.854420773863868e-03)
"YL" (4.752917996679352e-02 -3.675294660288687e-09)
"YG" (3.000002500000001e-06 2.568982973321964e-14)
"freq" 1.584893192461113e-03
"loopGain" (-5.899331129903019e+03 3.291752149068983e-02)
"ZL" (3.133473243882443e+09 -2.770830071620737e+04)
"ZG" (3.333330555557869e+05 -3.202712778608069e-03)
"YL" (4.752917996679345e-02 -4.123748433841365e-09)
"YG" (3.000002500000001e-06 2.882446304854761e-14)
"freq" 1.778279410038922e-03
"loopGain" (-5.899331129859334e+03 3.693406658218556e-02)
"ZL" (3.133473243822350e+09 -3.108922474036942e+04)
"ZG" (3.333330555557869e+05 -3.593502841433143e-03)
"YL" (4.752917996679336e-02 -4.626921843668824e-09)
"YG" (3.000002500000002e-06 3.234157947581544e-14)
"freq" 1.995262314968878e-03
"loopGain" (-5.899331129791742e+03 4.144070429710264e-02)
"ZL" (3.133473243736033e+09 -3.488268388760521e+04)
"ZG" (3.333330555557868e+05 -4.031976503717861e-03)
"YL" (4.752917996679325e-02 -5.191491695209268e-09)
"YG" (3.000002500000002e-06 3.628784901313848e-14)
"freq" 2.238721138568338e-03
"loopGain" (-5.899331129720244e+03 4.649723498008648e-02)
"ZL" (3.133473243638877e+09 -3.913901505630321e+04)
"ZG" (3.333330555557869e+05 -4.523952044483821e-03)
"YL" (4.752917996679309e-02 -5.824949487380165e-09)
"YG" (3.000002500000001e-06 4.071563625966477e-14)
"freq" 2.511886431509578e-03
"loopGain" (-5.899331129629235e+03 5.217075572089955e-02)
"ZL" (3.133473243522043e+09 -4.391469717487315e+04)
"ZG" (3.333330555564598e+05 -5.075957689820435e-03)
"YL" (4.752917996679291e-02 -6.535700820217278e-09)
"YG" (3.000002500000001e-06 4.568369526199012e-14)
"freq" 2.818382931264451e-03
"loopGain" (-5.899331129509794e+03 5.853655069254508e-02)
"ZL" (3.133473243362876e+09 -4.927310064279095e+04)
"ZG" (3.333330555564597e+05 -5.695318201236628e-03)
"YL" (4.752917996679268e-02 -7.333176932080231e-09)
"YG" (3.000002500000002e-06 5.125794914465991e-14)
"freq" 3.162277660168376e-03
"loopGain" (-5.899331129355562e+03 6.567909012645728e-02)
"ZL" (3.133473243152899e+09 -5.528532821801779e+04)
"ZG" (3.333330555557867e+05 -6.390252112906300e-03)
"YL" (4.752917996679239e-02 -8.227959846455426e-09)
"YG" (3.000002500000002e-06 5.751236486998002e-14)
"freq" 3.548133892335751e-03
"loopGain" (-5.899331129166261e+03 7.369315118128324e-02)
"ZL" (3.133473242900638e+09 -6.203115850776967e+04)
"ZG" (3.333330555557866e+05 -7.169980798323783e-03)
"YL" (4.752917996679201e-02 -9.231922788978460e-09)
"YG" (3.000002500000003e-06 6.452993473466523e-14)
"freq" 3.981071705534968e-03
"loopGain" (-5.899331128927946e+03 8.268507557772571e-02)
"ZL" (3.133473242576731e+09 -6.960010458012068e+04)
"ZG" (3.333330555551136e+05 -8.044850757602159e-03)
"YL" (4.752917996679153e-02 -1.035838773792458e-08)
"YG" (3.000002500000003e-06 7.240377762719573e-14)
"freq" 4.466835921509626e-03
"loopGain" (-5.899331128627924e+03 9.277418068884351e-02)
"ZL" (3.133473242183247e+09 -7.809260175060660e+04)
"ZG" (3.333330555557866e+05 -9.026471029086288e-03)
"YL" (4.752917996679094e-02 -1.162230219876641e-08)
"YG" (3.000002500000002e-06 8.123837465888948e-14)
"freq" 5.011872336272717e-03
"loopGain" (-5.899331128250220e+03 1.040943428089602e-01)
"ZL" (3.133473241679917e+09 -8.762134029457347e+04)
"ZG" (3.333330555557864e+05 -1.012786707185574e-02)
"YL" (4.752917996679021e-02 -1.304043754848999e-08)
"YG" (3.000002500000002e-06 9.115095556477029e-14)
"freq" 5.623413251903483e-03
"loopGain" (-5.899331127778582e+03 1.167957736108327e-01)
"ZL" (3.133473241055858e+09 -9.831276078193220e+04)
"ZG" (3.333330555564592e+05 -1.136365377852171e-02)
"YL" (4.752917996678927e-02 -1.463161158157772e-08)
"YG" (3.000002500000004e-06 1.022730542709306e-13)
"freq" 6.309573444801923e-03
"loopGain" (-5.899331127176096e+03 1.310470133623627e-01)
"ZL" (3.133473240242208e+09 -1.103087318615319e+05)
"ZG" (3.333330555551131e+05 -1.275022920024431e-02)
"YL" (4.752917996678811e-02 -1.641693821070814e-08)
"YG" (3.000002500000004e-06 1.147522542698103e-13)
"freq" 7.079457843841368e-03
"loopGain" (-5.899331126422475e+03 1.470371673549441e-01)
"ZL" (3.133473239250583e+09 -1.237684327806642e+05)
"ZG" (3.333330555564588e+05 -1.430599251265468e-02)
"YL" (4.752917996678663e-02 -1.842010763554901e-08)
"YG" (3.000002500000005e-06 1.287541469634779e-13)
"freq" 7.943282347242802e-03
"loopGain" (-5.899331125469858e+03 1.649784152137896e-01)
"ZL" (3.133473237976678e+09 -1.388704655831205e+05)
"ZG" (3.333330555557857e+05 -1.605158757633358e-02)
"YL" (4.752917996678477e-02 -2.066770069731367e-08)
"YG" (3.000002500000005e-06 1.444645289609296e-13)
"freq" 8.912509381337440e-03
"loopGain" (-5.899331124287045e+03 1.851088263946178e-01)
"ZL" (3.133473236394819e+09 -1.558152250636870e+05)
"ZG" (3.333330555557851e+05 -1.801017748149093e-02)
"YL" (4.752917996678242e-02 -2.318954159037435e-08)
"YG" (3.000002500000008e-06 1.620918674862013e-13)
"freq" 9.999999999999981e-03
"loopGain" (-5.899331122771780e+03 2.076955192151857e-01)
"ZL" (3.133473234381210e+09 -1.748275578699040e+05)
"ZG" (3.333330555557848e+05 -2.020775149948877e-02)
"YL" (4.752917996677948e-02 -2.601909361120131e-08)
"YG" (3.000002500000009e-06 1.818700666117862e-13)
"freq" 1.122018454301961e-02
"loopGain" (-5.899331120886503e+03 2.330382053611118e-01)
"ZL" (3.133473231865123e+09 -1.961597460936603e+05)
"ZG" (3.333330555557842e+05 -2.267347010205015e-02)
"YL" (4.752917996677575e-02 -2.919390319597587e-08)
"YG" (3.000002500000012e-06 2.040615710235496e-13)
"freq" 1.258925411794165e-02
"loopGain" (-5.899331118511076e+03 2.614731668676545e-01)
"ZL" (3.133473228686266e+09 -2.200948548850415e+05)
"ZG" (3.333330555551105e+05 -2.544005183014742e-02)
"YL" (4.752917996677108e-02 -3.275609813898675e-08)
"YG" (3.000002500000014e-06 2.289608485022720e-13)
"freq" 1.412537544622751e-02
"loopGain" (-5.899331115503130e+03 2.933777183803568e-01)
"ZL" (3.133473224687953e+09 -2.469504885631950e+05)
"ZG" (3.333330555557827e+05 -2.854420768511176e-02)
"YL" (4.752917996676521e-02 -3.675294660286476e-08)
"YG" (3.000002500000017e-06 2.568982973321834e-13)
"freq" 1.584893192461110e-02
"loopGain" (-5.899331111722217e+03 3.291752138926045e-01)
"ZL" (3.133473219651375e+09 -2.770830050216566e+05)
"ZG" (3.333330555557816e+05 -3.202712778647643e-02)
"YL" (4.752917996675780e-02 -4.123748433838244e-08)
"YG" (3.000002500000021e-06 2.882446304854591e-13)
"freq" 1.778279410038919e-02
"loopGain" (-5.899331106959464e+03 3.693406643876895e-01)
"ZL" (3.133473213308273e+09 -3.108922443785004e+05)
"ZG" (3.333330555557801e+05 -3.593502841407060e-02)
"YL" (4.752917996674848e-02 -4.626921843664417e-08)
"YG" (3.000002500000027e-06 3.234157947581290e-13)
"freq" 1.995262314968875e-02
"loopGain" (-5.899331100996436e+03 4.144070409499310e-01)
"ZL" (3.133473205350646e+09 -3.488268346093923e+05)
"ZG" (3.333330555557784e+05 -4.031976503717601e-02)
"YL" (4.752917996673672e-02 -5.191491695203044e-08)
"YG" (3.000002500000034e-06 3.628784901313499e-13)
"freq" 2.238721138568334e-02
"loopGain" (-5.899331093452504e+03 4.649723469433998e-01)
"ZL" (3.133473195301338e+09 -3.913901445329341e+05)
"ZG" (3.333330555557763e+05 -4.523952044419816e-02)
"YL" (4.752917996672196e-02 -5.824949487371379e-08)
"YG" (3.000002500000042e-06 4.071563625965957e-13)
"freq" 2.511886431509574e-02
"loopGain" (-5.899331083961122e+03 5.217075531710391e-01)
"ZL" (3.133473182648645e+09 -4.391469632254017e+05)
"ZG" (3.333330555551006e+05 -5.075957670753380e-02)
"YL" (4.752917996670334e-02 -6.535700820204871e-08)
"YG" (3.000002500000052e-06 4.568369526198279e-13)
"freq" 2.818382931264447e-02
"loopGain" (-5.899331072001587e+03 5.853655012186172e-01)
"ZL" (3.133473166718847e+09 -4.927309943855684e+05)
"ZG" (3.333330555550970e+05 -5.695318179777325e-02)
"YL" (4.752917996667992e-02 -7.333176932062703e-08)
"YG" (3.000002500000066e-06 5.125794914464966e-13)
"freq" 3.162277660168371e-02
"loopGain" (-5.899331056988078e+03 6.567908932102874e-01)
"ZL" (3.133473146694193e+09 -5.528532651805994e+05)
"ZG" (3.333330555544196e+05 -6.390252089032367e-02)
"YL" (4.752917996665044e-02 -8.227959846430674e-08)
"YG" (3.000002500000084e-06 5.751236486996549e-13)
"freq" 3.548133892335745e-02
"loopGain" (-5.899331038050263e+03 7.369315004332113e-01)
"ZL" (3.133473121461360e+09 -6.203115610632149e+05)
"ZG" (3.333330555544142e+05 -7.169980771390502e-02)
"YL" (4.752917996661329e-02 -9.231922788943503e-08)
"YG" (3.000002500000105e-06 6.452993473464507e-13)
"freq" 3.981071705534961e-02
"loopGain" (-5.899331014207104e+03 8.268507396996085e-01)
"ZL" (3.133473089693529e+09 -6.960010118797994e+05)
"ZG" (3.333330555544071e+05 -8.044850742488559e-02)
"YL" (4.752917996656655e-02 -1.035838773787520e-07)
"YG" (3.000002500000132e-06 7.240377762716715e-13)
"freq" 4.466835921509617e-02
"loopGain" (-5.899330984208810e+03 9.277417841799865e-01)
"ZL" (3.133473049709498e+09 -7.809259695881745e+05)
"ZG" (3.333330555537254e+05 -9.026470978228003e-02)
"YL" (4.752917996650773e-02 -1.162230219869666e-07)
"YG" (3.000002500000166e-06 8.123837465884851e-13)
"freq" 5.011872336272707e-02
"loopGain" (-5.899330946426733e+03 1.040943396009358e+00)
"ZL" (3.133472999366621e+09 -8.762133352581523e+05)
"ZG" (3.333330555537142e+05 -1.012786701465871e-01)
"YL" (4.752917996643365e-02 -1.304043754839148e-07)
"YG" (3.000002500000209e-06 9.115095556471309e-13)
"freq" 5.623413251903472e-02
"loopGain" (-5.899330898876514e+03 1.167957690793816e+00)
"ZL" (3.133472935988401e+09 -9.831275121998274e+05)
"ZG" (3.333330555523544e+05 -1.136365365062534e-01)
"YL" (4.752917996634038e-02 -1.463161158143859e-07)
"YG" (3.000002500000264e-06 1.022730542708496e-12)
"freq" 6.309573444801911e-02
"loopGain" (-5.899330839010472e+03 1.310470069617394e+00)
"ZL" (3.133472856212605e+09 -1.103087183568632e+06)
"ZG" (3.333330555523367e+05 -1.275022910429173e-01)
"YL" (4.752917996622298e-02 -1.641693821051160e-07)
"YG" (3.000002500000332e-06 1.147522542696960e-12)
"freq" 7.079457843841354e-02
"loopGain" (-5.899330763632997e+03 1.470371583133082e+00)
"ZL" (3.133472755765759e+09 -1.237684137032178e+06)
"ZG" (3.333330555509689e+05 -1.430599229785986e-01)
"YL" (4.752917996607518e-02 -1.842010763527141e-07)
"YG" (3.000002500000418e-06 1.287541469633162e-12)
"freq" 7.943282347242786e-02
"loopGain" (-5.899330668746250e+03 1.649784024422118e+00)
"ZL" (3.133472629306056e+09 -1.388704386355742e+06)
"ZG" (3.333330555489223e+05 -1.605158727511583e-01)
"YL" (4.752917996588912e-02 -2.066770069692158e-07)
"YG" (3.000002500000525e-06 1.444645289607009e-12)
"freq" 8.912509381337422e-02
"loopGain" (-5.899330549301650e+03 1.851088083540040e+00)
"ZL" (3.133472470132440e+09 -1.558151870001139e+06)
"ZG" (3.333330555488871e+05 -1.801017714296197e-01)
"YL" (4.752917996565486e-02 -2.318954158982051e-07)
"YG" (3.000002500000662e-06 1.620918674858805e-12)
"freq" 9.999999999999962e-02
"loopGain" (-5.899330398919218e+03 2.076954937329313e+00)
"ZL" (3.133472269714598e+09 -1.748275041037398e+06)
"ZG" (3.333330555461511e+05 -2.020775096812228e-01)
"YL" (4.752917996535996e-02 -2.601909361041897e-07)
"YG" (3.000002500000833e-06 1.818700666113317e-12)
"freq" 1.122018454301959e-01
"loopGain" (-5.899330209606835e+03 2.330381693662037e+00)
"ZL" (3.133472017420004e+09 -1.961596701466985e+06)
"ZG" (3.333330555434038e+05 -2.267346933584009e-01)
"YL" (4.752917996498870e-02 -2.919390319487083e-07)
"YG" (3.000002500001049e-06 2.040615710229084e-12)
"freq" 1.258925411794162e-01
"loopGain" (-5.899329971260357e+03 2.614731160219430e+00)
"ZL" (3.133471699788606e+09 -2.200947476068483e+06)
"ZG" (3.333330555406419e+05 -2.544005082672616e-01)
"YL" (4.752917996452129e-02 -3.275609813742585e-07)
"YG" (3.000002500001321e-06 2.289608485013659e-12)
"freq" 1.412537544622748e-01
"loopGain" (-5.899329671207953e+03 2.933776465596437e+00)
"ZL" (3.133471299911865e+09 -2.469503370274224e+06)
"ZG" (3.333330555365165e+05 -2.854420618430889e-01)
"YL" (4.752917996393289e-02 -3.675294660065995e-07)
"YG" (3.000002500001662e-06 2.568982973309028e-12)
"freq" 1.584893192461107e-01
"loopGain" (-5.899329293476271e+03 3.291751124447056e+00)
"ZL" (3.133470796517953e+09 -2.770827909745017e+06)
"ZG" (3.333330555316948e+05 -3.202712568110782e-01)
"YL" (4.752917996319210e-02 -4.123748433526808e-07)
"YG" (3.000002500002092e-06 2.882446304836502e-12)
"freq" 1.778279410038915e-01
"loopGain" (-5.899328817935737e+03 3.693405210902397e+00)
"ZL" (3.133470162770339e+09 -3.108919420300426e+06)
"ZG" (3.333330555254988e+05 -3.593502544502404e-01)
"YL" (4.752917996225951e-02 -4.626921843224501e-07)
"YG" (3.000002500002635e-06 3.234157947555738e-12)
"freq" 1.995262314968871e-01
"loopGain" (-5.899328219256467e+03 4.144068385327177e+00)
"ZL" (3.133469364924992e+09 -3.488264075249689e+06)
"ZG" (3.333330555172477e+05 -4.031976079586262e-01)
"YL" (4.752917996108547e-02 -5.191491694581655e-07)
"YG" (3.000002500003316e-06 3.628784901277418e-12)
"freq" 2.238721138568329e-01
"loopGain" (-5.899327465567509e+03 4.649720610231202e+00)
"ZL" (3.133468360497022e+09 -3.913895412612488e+06)
"ZG" (3.333330555076054e+05 -4.523951449752022e-01)
"YL" (4.752917995960747e-02 -5.824949486493647e-07)
"YG" (3.000002500004175e-06 4.071563625914997e-12)
"freq" 2.511886431509568e-01
"loopGain" (-5.899326516712827e+03 5.217071492957696e+00)
"ZL" (3.133467095996036e+09 -4.391461110826617e+06)
"ZG" (3.333330554958867e+05 -5.075956850856491e-01)
"YL" (4.752917995774672e-02 -6.535700818965045e-07)
"YG" (3.000002500005257e-06 4.568369526126280e-12)
"freq" 2.818382931264440e-01
"loopGain" (-5.899325322210743e+03 5.853649307362475e+00)
"ZL" (3.133465504104361e+09 -4.927297907098293e+06)
"ZG" (3.333330554800587e+05 -5.695317013770659e-01)
"YL" (4.752917995540421e-02 -7.333176930311409e-07)
"YG" (3.000002500006616e-06 5.125794914363277e-12)
"freq" 3.162277660168364e-01
"loopGain" (-5.899323818397174e+03 6.567900873750393e+00)
"ZL" (3.133463500024793e+09 -5.528515649391374e+06)
"ZG" (3.333330554614478e+05 -6.390250468502527e-01)
"YL" (4.752917995245515e-02 -8.227959843956902e-07)
"YG" (3.000002500008330e-06 5.751236486852913e-12)
"freq" 3.548133892335737e-01
"loopGain" (-5.899321925220122e+03 7.369303621642377e+00)
"ZL" (3.133460977038535e+09 -6.203091594120251e+06)
"ZG" (3.333330554359934e+05 -7.169978454919600e-01)
"YL" (4.752917994874251e-02 -9.231922785449214e-07)
"YG" (3.000002500010486e-06 6.452993473261625e-12)
"freq" 3.981071705534953e-01
"loopGain" (-5.899319541847940e+03 8.268491318552780e+00)
"ZL" (3.133457800793197e+09 -6.959976194636822e+06)
"ZG" (3.333330554056845e+05 -8.044847478352272e-01)
"YL" (4.752917994406856e-02 -1.035838773293940e-06)
"YG" (3.000002500013201e-06 7.240377762430123e-12)
"freq" 4.466835921509609e-01
"loopGain" (-5.899316541366803e+03 9.277395130390483e+00)
"ZL" (3.133453802134057e+09 -7.809211776716400e+06)
"ZG" (3.333330553657735e+05 -9.026466349511379e-01)
"YL" (4.752917993818440e-02 -1.162230219172467e-06)
"YG" (3.000002500016619e-06 8.123837465480064e-12)
"freq" 5.011872336272697e-01
"loopGain" (-5.899312763991677e+03 1.040940187944551e+01)
"ZL" (3.133448768153931e+09 -8.762065665126653e+06)
"ZG" (3.333330553168863e+05 -1.012786047077877e+00)
"YL" (4.752917993077669e-02 -1.304043753854327e-06)
"YG" (3.000002500020922e-06 9.115095555899545e-12)
"freq" 5.623413251903461e-01
"loopGain" (-5.899308008550729e+03 1.167953159279656e+01)
"ZL" (3.133442430761953e+09 -9.831179511126632e+06)
"ZG" (3.333330552549265e+05 -1.136364442958253e+00)
"YL" (4.752917992145095e-02 -1.463161156752763e-06)
"YG" (3.000002500026340e-06 1.022730542627732e-11)
"freq" 6.309573444801898e-01
"loopGain" (-5.899302021821180e+03 1.310463668687370e+01)
"ZL" (3.133434452485937e+09 -1.103073678194216e+07)
"ZG" (3.333330551771284e+05 -1.275021605179010e+00)
"YL" (4.752917990971054e-02 -1.641693819086187e-06)
"YG" (3.000002500033159e-06 1.147522542582874e-11)
"freq" 7.079457843841340e-01
"loopGain" (-5.899294485007193e+03 1.470362541600390e+01)
"ZL" (3.133424408511754e+09 -1.237665060258917e+07)
"ZG" (3.333330550786878e+05 -1.430597386373760e+00)
"YL" (4.752917989493021e-02 -1.842010760751542e-06)
"YG" (3.000002500041745e-06 1.287541469472014e-11)
"freq" 7.943282347242770e-01
"loopGain" (-5.899284996730940e+03 1.649771252935304e+01)
"ZL" (3.133411763963170e+09 -1.388677439803389e+07)
"ZG" (3.333330549547772e+05 -1.605156125520137e+00)
"YL" (4.752917987632291e-02 -2.066770065771522e-06)
"YG" (3.000002500052553e-06 1.444645289379386e-11)
"freq" 8.912509381337405e-01
"loopGain" (-5.899273051760844e+03 1.851070043373793e+01)
"ZL" (3.133395845594611e+09 -1.558113807175675e+07)
"ZG" (3.333330547998653e+05 -1.801014033723198e+00)
"YL" (4.752917985289769e-02 -2.318954153444006e-06)
"YG" (3.000002500066160e-06 1.620918674537281e-11)
"freq" 9.999999999999942e-01
"loopGain" (-5.899258013980238e+03 2.076929454975755e+01)
"ZL" (3.133375805755184e+09 -1.748221276209915e+07)
"ZG" (3.333330546036731e+05 -2.020769900613468e+00)
"YL" (4.752917982340708e-02 -2.601909353219204e-06)
"YG" (3.000002500083292e-06 1.818700665659147e-11)
"freq" 1.122018454301957e+00
"loopGain" (-5.899239082663519e+03 2.330345698997866e+01)
"ZL" (3.133350577492711e+09 -1.961520757266530e+07)
"ZG" (3.333330543585651e+05 -2.267339604252754e+00)
"YL" (4.752917978628061e-02 -2.919390308437237e-06)
"YG" (3.000002500104858e-06 2.040615709587546e-11)
"freq" 1.258925411794160e+00
"loopGain" (-5.899215249728581e+03 2.614680316634225e+01)
"ZL" (3.133318817544240e+09 -2.200840203134566e+07)
"ZG" (3.333330540474259e+05 -2.543994718391404e+00)
"YL" (4.752917973954114e-02 -3.275609798134263e-06)
"YG" (3.000002500132008e-06 2.289608484107469e-11)
"freq" 1.412537544622746e+00
"loopGain" (-5.899185246080566e+03 2.933704647474867e+01)
"ZL" (3.133278835046773e+09 -2.469351845177601e+07)
"ZG" (3.333330536577751e+05 -2.854405987327673e+00)
"YL" (4.752917968069968e-02 -3.675294638018655e-06)
"YG" (3.000002500166189e-06 2.568982972028991e-11)
"freq" 1.584893192461104e+00
"loopGain" (-5.899147474181814e+03 3.291649679302012e+01)
"ZL" (3.133228501520668e+09 -2.770613878299813e+07)
"ZG" (3.333330531656009e+05 -3.202691893097033e+00)
"YL" (4.752917960662262e-02 -4.123748402384115e-06)
"YG" (3.000002500209218e-06 2.882446303028415e-11)
"freq" 1.778279410038912e+00
"loopGain" (-5.899099922863016e+03 3.693261916985396e+01)
"ZL" (3.133165137665852e+09 -3.108617099018839e+07)
"ZG" (3.333330525474465e+05 -3.593473347141064e+00)
"YL" (4.752917951336514e-02 -4.626921799234281e-06)
"YG" (3.000002500263390e-06 3.234157945001773e-11)
"freq" 1.995262314968867e+00
"loopGain" (-5.899040060395170e+03 4.143865979376798e+01)
"ZL" (3.133085370938729e+09 -3.487837046069731e+07)
"ZG" (3.333330517682721e+05 -4.031934839048986e+00)
"YL" (4.752917939596094e-02 -5.191491632443822e-06)
"YG" (3.000002500331589e-06 3.628784897669833e-11)
"freq" 2.238721138568325e+00
"loopGain" (-5.898964699737266e+03 4.649434707919438e+01)
"ZL" (3.132984956345757e+09 -3.913292237377813e+07)
"ZG" (3.333330507874754e+05 -4.523893190287215e+00)
"YL" (4.752917924815780e-02 -5.824949398721624e-06)
"YG" (3.000002500417446e-06 4.071563620819175e-11)
"freq" 2.511886431509564e+00
"loopGain" (-5.898869829005338e+03 5.216667651762594e+01)
"ZL" (3.132858550989486e+09 -4.390609137817359e+07)
"ZG" (3.333330495527927e+05 -5.075874545756504e+00)
"YL" (4.752917906208470e-02 -6.535700694983772e-06)
"YG" (3.000002500525532e-06 4.568369518928237e-11)
"freq" 2.818382931264435e+00
"loopGain" (-5.898750398202487e+03 5.853078878168534e+01)
"ZL" (3.132699430599368e+09 -4.926094524932656e+07)
"ZG" (3.333330479995764e+05 -5.695200777500016e+00)
"YL" (4.752917882783249e-02 -7.333176755183204e-06)
"YG" (3.000002500661606e-06 5.125794904195751e-11)
"freq" 3.162277660168358e+00
"loopGain" (-5.898600050599736e+03 6.567095141872545e+01)
"ZL" (3.132499132845060e+09 -5.526815936583842e+07)
"ZG" (3.333330460440075e+05 -6.390086278918069e+00)
"YL" (4.752917853292647e-02 -8.227959596581743e-06)
"YG" (3.000002500832913e-06 5.751236472490917e-11)
"freq" 3.548133892335731e+00
"loopGain" (-5.898410785067574e+03 7.368165531978616e+01)
"ZL" (3.132247009267265e+09 -6.200690880883361e+07)
"ZG" (3.333330435816807e+05 -7.169746561765974e+00)
"YL" (4.752917816166180e-02 -9.231922436022533e-06)
"YG" (3.000002501048575e-06 6.452993452974763e-11)
"freq" 3.981071705534945e+00
"loopGain" (-5.898172531141220e+03 8.266883789731412e+01)
"ZL" (3.131929662130705e+09 -6.956585443644483e+07)
"ZG" (3.333330404821459e+05 -8.044519923765815e+00)
"YL" (4.752917769426728e-02 -1.035838723936110e-05)
"YG" (3.000002501320078e-06 7.240377733774148e-11)
"freq" 4.466835921509600e+00
"loopGain" (-5.897872614592957e+03 9.275124552178350e+01)
"ZL" (3.131530237096397e+09 -7.804422829985100e+07)
"ZG" (3.333330365821007e+05 -9.026003764937455e+00)
"YL" (4.752917710585246e-02 -1.162230149452680e-05)
"YG" (3.000002501661878e-06 8.123837425002502e-11)
"freq" 5.011872336272687e+00
"loopGain" (-5.897495085399971e+03 1.040619480982088e+02)
"ZL" (3.131027535461257e+09 -8.755302193657050e+07)
"ZG" (3.333330316718607e+05 -1.012720711434330e+01)
"YL" (4.752917636508208e-02 -1.304043655372513e-05)
"YG" (3.000002502092181e-06 9.115095498723423e-11)
"freq" 5.623413251903450e+00
"loopGain" (-5.897019873008422e+03 1.167500185522458e+02)
"ZL" (3.130394900805460e+09 -9.821627801395848e+07)
"ZG" (3.333330254939588e+05 -1.136272173858381e+01)
"YL" (4.752917543250749e-02 -1.463161017643507e-05)
"YG" (3.000002502633901e-06 1.022730534551389e-10)
"freq" 6.309573444801886e+00
"loopGain" (-5.896421724928042e+03 1.309823891794094e+02)
"ZL" (3.129598824006227e+09 -1.101724809528685e+08)
"ZG" (3.333330177202712e+05 -1.274891306740710e+01)
"YL" (4.752917425846569e-02 -1.641693622589147e-05)
"YG" (3.000002503315883e-06 1.147522531174746e-10)
"freq" 7.079457843841326e+00
"loopGain" (-5.895668873621344e+03 1.469458949246181e+02)
"ZL" (3.128597197630103e+09 -1.235760347879097e+08)
"ZG" (3.333330079379878e+05 -1.430413392899135e+01)
"YL" (4.752917278043469e-02 -1.842010483192106e-05)
"YG" (3.000002504174450e-06 1.287541453357604e-10)
"freq" 7.943282347242755e+00
"loopGain" (-5.894721363270409e+03 1.648495101978977e+02)
"ZL" (3.127337135076485e+09 -1.385988055401289e+08)
"ZG" (3.333329956337453e+05 -1.604896341127279e+01)
"YL" (4.752917091970402e-02 -2.066769673708411e-05)
"YG" (3.000002505255320e-06 1.444645266617170e-10)
"freq" 8.912509381337388e+00
"loopGain" (-5.893528951332436e+03 1.849267800486390e+02)
"ZL" (3.125752251289439e+09 -1.554316893178488e+08)
"ZG" (3.333329801559079e+05 -1.800647261302885e+01)
"YL" (4.752916857718315e-02 -2.318953599640173e-05)
"YG" (3.000002506616056e-06 1.620918642384797e-10)
"freq" 9.999999999999924e+00
"loopGain" (-5.892028479372567e+03 2.074384373816271e+02)
"ZL" (3.123759281133321e+09 -1.742861442954414e+08)
"ZG" (3.333329606928517e+05 -2.020252157185154e+01)
"YL" (4.752916562812440e-02 -2.601908570950546e-05)
"YG" (3.000002508329120e-06 1.818700620242571e-10)
"freq" 1.122018454301955e+01
"loopGain" (-5.890140583029515e+03 2.326751839637442e+02)
"ZL" (3.121253887358794e+09 -1.953955918285698e+08)
"ZG" (3.333329362246312e+05 -2.266608852359757e+01)
"YL" (4.752916191547995e-02 -2.919389203453477e-05)
"YG" (3.000002510485741e-06 2.040615645434940e-10)
"freq" 1.258925411794157e+01
"loopGain" (-5.887765581807683e+03 2.609605922614444e+02)
"ZL" (3.118105486266030e+09 -2.190165459486175e+08)
"ZG" (3.333329054768333e+05 -2.542963565121386e+01)
"YL" (4.752915724153833e-02 -3.275608237303374e-05)
"YG" (3.000002513200765e-06 2.289608393489504e-10)
"freq" 1.412537544622743e+01
"loopGain" (-5.884778354167186e+03 2.926540548239641e+02)
"ZL" (3.114150894623116e+09 -2.454292664559979e+08)
"ZG" (3.333328668540904e+05 -2.852951299446969e+01)
"YL" (4.752915135739576e-02 -3.675292433286703e-05)
"YG" (3.000002516618775e-06 2.568982844027747e-10)
"freq" 1.584893192461101e+01
"loopGain" (-5.881021964397164e+03 3.281536643952333e+02)
"ZL" (3.109186584251774e+09 -2.749376435115535e+08)
"ZG" (3.333328183688414e+05 -3.200640405715924e+01)
"YL" (4.752914394970122e-02 -4.123745288117955e-05)
"YG" (3.000002520921795e-06 2.882446122221866e-10)
"freq" 1.778279410038909e+01
"loopGain" (-5.876299762736245e+03 3.678988459276543e+02)
"ZL" (3.102959324312845e+09 -3.078679038190792e+08)
"ZG" (3.333327575449592e+05 -3.590581383038880e+01)
"YL" (4.752913462396968e-02 -4.626917400217290e-05)
"YG" (3.000002526338975e-06 3.234157689605762e-10)
"freq" 1.995262314968863e+01
"loopGain" (-5.870365634339442e+03 4.123724747498120e+02)
"ZL" (3.095155011426885e+09 -3.445655733379310e+08)
"ZG" (3.333326813153510e+05 -4.027860209404010e+01)
"YL" (4.752912288357445e-02 -5.191485418668717e-05)
"YG" (3.000002533158797e-06 3.628784536913483e-10)
"freq" 2.238721138568321e+01
"loopGain" (-5.862912028037161e+03 4.621020945216645e+02)
"ZL" (3.085385549950411e+09 -3.853899318615826e+08)
"ZG" (3.333325858846072e+05 -4.518155961585643e+01)
"YL" (4.752910810330084e-02 -5.824940621533774e-05)
"YG" (3.000002541744437e-06 4.071563111237460e-10)
"freq" 2.511886431509559e+01
"loopGain" (-5.853555362074357e+03 5.176596837213933e+02)
"ZL" (3.073173780215420e+09 -4.307049478238689e+08)
"ZG" (3.333324665863246e+05 -5.067802857179797e+01)
"YL" (4.752908949605197e-02 -6.535688296881332e-05)
"YG" (3.000002552553113e-06 4.568368799125224e-10)
"freq" 2.818382931264430e+01
"loopGain" (-5.841818394138094e+03 5.796591974825766e+02)
"ZL" (3.057936699543266e+09 -4.808653917340932e+08)
"ZG" (3.333323177193427e+05 -5.683856252522514e+01)
"YL" (4.752906607093441e-02 -7.333159242406814e-05)
"YG" (3.000002566160417e-06 5.125793887447507e-10)
"freq" 3.162277660168353e+01
"loopGain" (-5.827109179171013e+03 6.487508187350639e+02)
"ZL" (3.038967635683609e+09 -5.361965152146571e+08)
"ZG" (3.333321323668975e+05 -6.374162020495879e+01)
"YL" (4.752903658049168e-02 -8.227934859143191e-05)
"YG" (3.000002583290977e-06 5.751235036296730e-10)
"freq" 3.548133892335724e+01
"loopGain" (-5.808696359145088e+03 7.256104768294648e+02)
"ZL" (3.015418685827462e+09 -5.969654019447573e+08)
"ZG" (3.333319022257596e+05 -7.147428862213690e+01)
"YL" (4.752899945427629e-02 -9.231887493489562e-05)
"YG" (3.000002604857046e-06 6.452991424298145e-10)
"freq" 3.981071705534938e+01
"loopGain" (-5.785680782472922e+03 8.109227259867706e+02)
"ZL" (2.986285697999749e+09 -6.633419473372252e+08)
"ZG" (3.333316174539389e+05 -8.013302733268399e+01)
"YL" (4.752895271522328e-02 -1.035833788177072e-04)
"YG" (3.000002632007069e-06 7.240374868195189e-10)
"freq" 4.466835921509592e+01
"loopGain" (-5.756963919530124e+03 9.053545302042063e+02)
"ZL" (2.950399409408820e+09 -7.353475828508747e+08)
"ZG" (3.333312665787364e+05 -8.982443156582886e+01)
"YL" (4.752889387437336e-02 -1.162223177516504e-04)
"YG" (3.000002666186846e-06 8.123833377269707e-10)
"freq" 5.011872336272678e+01
"loopGain" (-5.721214324680563e+03 1.009516915624851e+03)
"ZL" (2.906428062366870e+09 -8.127906021178384e+08)
"ZG" (3.333308365122257e+05 -1.006660192469031e+02)
"YL" (4.752881979834066e-02 -1.304033807266513e-04)
"YG" (3.000002709216516e-06 9.115089781157947e-10)
"freq" 5.623413251903440e+01
"loopGain" (-5.676834627198776e+03 1.123910924168651e+03)
"ZL" (2.852898747589789e+09 -8.951886489954299e+08)
"ZG" (3.333303127395292e+05 -1.127870644782231e+02)
"YL" (4.752872654247116e-02 -1.463147106851791e-04)
"YG" (3.000002763387469e-06 1.022729726925409e-09)
"freq" 6.309573444801875e+01
"loopGain" (-5.621933354117778e+03 1.248854025187410e+03)
"ZL" (2.788246463530160e+09 -9.816820301473566e+08)
"ZG" (3.333296797901050e+05 -1.263295408435316e+02)
"YL" (4.752860914081106e-02 -1.641673973122918e-04)
"YG" (3.000002831584353e-06 1.147521390375592e-09)
"freq" 7.079457843841314e+01
"loopGain" (-5.554308409736817e+03 1.384383448231143e+03)
"ZL" (2.710900607291885e+09 -1.070946362212055e+09)
"ZG" (3.333289220407958e+05 -1.414492676840478e+02)
"YL" (4.752846134170797e-02 -1.841982727671081e-04)
"YG" (3.000002917438664e-06 1.287539841941065e-09)
"freq" 7.943282347242742e+01
"loopGain" (-5.471452250933398e+03 1.530134307198588e+03)
"ZL" (2.619417017656051e+09 -1.161119595049070e+09)
"ZG" (3.333280249791184e+05 -1.583174464462832e+02)
"YL" (4.752827527497698e-02 -2.066730468148943e-04)
"YG" (3.000003025522071e-06 1.444642990439872e-09)
"freq" 8.912509381337372e+01