HEADER
"PSFversion" "1.00"
"simulator" "spectre"
"version" "25.1.0.235.isr5"
"date" "1:26:05 PM, Sun Jul 19, 2026"
"design" "// tb_fdota_stb_dm.scs (SKY130) -- fully-differential two-stage OTA with"
"analysis type" "margin.stb"
"analysis name" "stb"
"analysis description" "Stability Analysis `stb': freq = (1 mHz -> 10 GHz)"
"xVecSorted" "ascending"
"tolerance.relative" 1.000000000000000e-03
"operating point producer" "stb"
"probe" "FDPRB.IPRB_DM"
TYPE
"dB" FLOAT DOUBLE PROP(
"key" "gain"
"units" "dB"
)
"Deg" FLOAT DOUBLE PROP(
"key" "gain"
"units" "Deg"
)
"Hz" FLOAT DOUBLE PROP(
"key" "gain"
"units" "Hz"
)
"stbstate" STRING *
VALUE
"gainMargin" "dB" 1.345220969759680e+01
"gainMarginFreq" "Hz" 6.676097621305027e+06
"phaseMargin" "Deg" 6.411887418489547e+01
"phaseMarginFreq" "Hz" 1.667158697579683e+06
"stb_state" "stbstate" "The circuit is stable. Gain and phase margin are both found."
END
