HEADER
"PSFversion" "1.00"
"simulator" "spectre"
"version" "25.1.0.235.isr5"
"date" "1:26:05 PM, Sun Jul 19, 2026"
"design" "// tb_fdota_stb_dm.scs (SKY130) -- fully-differential two-stage OTA with"
"analysis type" "stb"
"analysis name" "stb"
"analysis description" "Stability Analysis `stb': freq = (1 mHz -> 10 GHz)"
"xVecSorted" "ascending"
"tolerance.relative" 1.000000000000000e-03
"operating point producer" "stb"
"probe" "FDPRB.IPRB_DM"
"marginFilename" "stb.margin.stb"
TYPE
"sweep" FLOAT DOUBLE PROP(
"key" "sweep"
)
"LOOPGAIN" COMPLEX DOUBLE PROP(
"key" "gain"
)
"IMPEDANCE" COMPLEX DOUBLE PROP(
"key" "advprobe"
)
"ADMITTANCE" COMPLEX DOUBLE PROP(
"key" "advprobe"
)
SWEEP
"freq" "sweep" PROP(
"sweep_direction" 0
"units" "Hz"
"plot" 0
"grid" 3
)
TRACE
"loopGain" "LOOPGAIN"
"ZL" "IMPEDANCE"
"ZG" "IMPEDANCE"
"YL" "ADMITTANCE"
"YG" "ADMITTANCE"
VALUE
"freq" 1.000000000000000e-03
"loopGain" (-5.920895276150864e+03 2.068462642866573e-02)
"ZL" (3.144906812036119e+09 -1.741106423140381e+04)
"ZG" (3.333330555564648e+05 -2.031544778258247e-03)
"YL" (4.770340014284953e-02 -2.593607035015780e-09)
"YG" (3.000002500000001e-06 1.828392488983943e-14)
"freq" 1.122018454301963e-03
"loopGain" (-5.920895276128264e+03 2.320853257320147e-02)
"ZL" (3.144906812007895e+09 -1.953553537647604e+04)
"ZG" (3.333330555564648e+05 -2.279430731895410e-03)
"YL" (4.770340014284950e-02 -2.910074956495103e-09)
"YG" (3.000002500000001e-06 2.051490114347081e-14)
"freq" 1.258925411794167e-03
"loopGain" (-5.920895276108606e+03 2.604040184433126e-02)
"ZL" (3.144906811979807e+09 -2.191923120690294e+04)
"ZG" (3.333330555564647e+05 -2.557563346518414e-03)
"YL" (4.770340014284944e-02 -3.265157804589483e-09)
"YG" (3.000002500000001e-06 2.301809767115466e-14)
"freq" 1.412537544622754e-03
"loopGain" (-5.920895276071170e+03 2.921781142655497e-02)
"ZL" (3.144906811933709e+09 -2.459378191784485e+04)
"ZG" (3.333330555564649e+05 -2.869633272866855e-03)
"YL" (4.770340014284939e-02 -3.663567312957481e-09)
"YG" (3.000002500000001e-06 2.582673036996062e-14)
"freq" 1.584893192461113e-03
"loopGain" (-5.920895276037738e+03 3.278292361474548e-02)
"ZL" (3.144906811887264e+09 -2.759467717252124e+04)
"ZG" (3.333330555564648e+05 -3.219781489222211e-03)
"YL" (4.770340014284931e-02 -4.110590133715744e-09)
"YG" (3.000002500000001e-06 2.897806808937682e-14)
"freq" 1.778279410038922e-03
"loopGain" (-5.920895275994641e+03 3.678304528147298e-02)
"ZL" (3.144906811821547e+09 -3.096173702739689e+04)
"ZG" (3.333330555557869e+05 -3.612654242982957e-03)
"YL" (4.770340014284923e-02 -4.612157988100631e-09)
"YG" (3.000002500000001e-06 3.251392716629952e-14)
"freq" 1.995262314968878e-03
"loopGain" (-5.920895275923803e+03 4.127125561066355e-02)
"ZL" (3.144906811726436e+09 -3.473964032075478e+04)
"ZG" (3.333330555551090e+05 -4.053464722069793e-03)
"YL" (4.770340014284912e-02 -5.174926376805110e-09)
"YG" (3.000002500000002e-06 3.648122630241802e-14)
"freq" 2.238721138568338e-03
"loopGain" (-5.920895275849328e+03 4.630711042679557e-02)
"ZL" (3.144906811633588e+09 -3.897851753463063e+04)
"ZG" (3.333330555557869e+05 -4.548062230564030e-03)
"YL" (4.770340014284898e-02 -5.806362894429312e-09)
"YG" (3.000002500000000e-06 4.093260914687925e-14)
"freq" 2.511886431509578e-03
"loopGain" (-5.920895275763357e+03 5.195743246357608e-02)
"ZL" (3.144906811515240e+09 -4.373461599363491e+04)
"ZG" (3.333330555557869e+05 -5.103009754017819e-03)
"YL" (4.770340014284877e-02 -6.514846319923823e-09)
"YG" (3.000002500000001e-06 4.592714284552775e-14)
"freq" 2.818382931264451e-03
"loopGain" (-5.920895275645323e+03 5.829719806111647e-02)
"ZL" (3.144906811364347e+09 -4.907104623441443e+04)
"ZG" (3.333330555564648e+05 -5.725671127027695e-03)
"YL" (4.770340014284855e-02 -7.309777797895728e-09)
"YG" (3.000002500000000e-06 5.153110182604476e-14)
"freq" 3.162277660168376e-03
"loopGain" (-5.920895275492832e+03 6.541053205694564e-02)
"ZL" (3.144906811156641e+09 -5.505861944311846e+04)
"ZG" (3.333330555557867e+05 -6.424308655830349e-03)
"YL" (4.770340014284826e-02 -8.201705586085720e-09)
"YG" (3.000002500000002e-06 5.781884721933557e-14)
"freq" 3.548133892335751e-03
"loopGain" (-5.920895275301867e+03 7.339182407118496e-02)
"ZL" (3.144906810904063e+09 -6.177678707854620e+04)
"ZG" (3.333330555557868e+05 -7.208192868126302e-03)
"YL" (4.770340014284789e-02 -9.202465024339612e-09)
"YG" (3.000002500000001e-06 6.487381358656031e-14)
"freq" 3.981071705534968e-03
"loopGain" (-5.920895275070249e+03 8.234698099958716e-02)
"ZL" (3.144906810593526e+09 -6.931469514284941e+04)
"ZG" (3.333330555557867e+05 -8.087725420198496e-03)
"YL" (4.770340014284742e-02 -1.032533558237731e-08)
"YG" (3.000002500000002e-06 7.278961604506610e-14)
"freq" 4.466835921509626e-03
"loopGain" (-5.920895274773760e+03 9.239483233296503e-02)
"ZL" (3.144906810204830e+09 -7.777236709515056e+04)
"ZG" (3.333330555564644e+05 -9.074577191622028e-03)
"YL" (4.770340014284685e-02 -1.158521707028791e-08)
"YG" (3.000002500000002e-06 8.167129248411827e-14)
"freq" 5.011872336272717e-03
"loopGain" (-5.920895274396609e+03 1.036687069530538e-01)
"ZL" (3.144906809691357e+09 -8.726203110082966e+04)
"ZG" (3.333330555551087e+05 -1.018184303625944e-02)
"YL" (4.770340014284612e-02 -1.299882734995696e-08)
"YG" (3.000002500000002e-06 9.163669735387376e-14)
"freq" 5.623413251903483e-03
"loopGain" (-5.920895273922811e+03 1.163182023255666e-01)
"ZL" (3.144906809074675e+09 -9.790960923612362e+04)
"ZG" (3.333330555564642e+05 -1.142421582774922e-02)
"YL" (4.770340014284521e-02 -1.458492417093651e-08)
"YG" (3.000002500000003e-06 1.028180655223299e-13)
"freq" 6.309573444801923e-03
"loopGain" (-5.920895273335131e+03 1.305111695676466e-01)
"ZL" (3.144906808276872e+09 -1.098563883882537e+05)
"ZG" (3.333330555551084e+05 -1.281818093710842e-02)
"YL" (4.770340014284404e-02 -1.636455407438512e-08)
"YG" (3.000002500000003e-06 1.153637669516829e-13)
"freq" 7.079457843841368e-03
"loopGain" (-5.920895272590382e+03 1.464359407290175e-01)
"ZL" (3.144906807290844e+09 -1.232608950562383e+05)
"ZG" (3.333330555557859e+05 -1.438223558877423e-02)
"YL" (4.770340014284256e-02 -1.836133166788192e-08)
"YG" (3.000002500000004e-06 1.294402754775789e-13)
"freq" 7.943282347242802e-03
"loopGain" (-5.920895271656694e+03 1.643038278452293e-01)
"ZL" (3.144906806051148e+09 -1.383009988928536e+05)
"ZG" (3.333330555564635e+05 -1.613713377469893e-02)
"YL" (4.770340014284073e-02 -2.060175297692177e-08)
"YG" (3.000002500000006e-06 1.452343778157726e-13)
"freq" 8.912509381337440e-03
"loopGain" (-5.920895270472454e+03 1.843519269178134e-01)
"ZL" (3.144906804468575e+09 -1.551762729277059e+05)
"ZG" (3.333330555557852e+05 -1.810616186130761e-02)
"YL" (4.770340014283841e-02 -2.311554703107550e-08)
"YG" (3.000002500000007e-06 1.629556521083595e-13)
"freq" 9.999999999999981e-03
"loopGain" (-5.920895268998167e+03 2.068462640368134e-01)
"ZL" (3.144906802504711e+09 -1.741106417869789e+05)
"ZG" (3.333330555564626e+05 -2.031544778232840e-02)
"YL" (4.770340014283548e-02 -2.593607035015008e-08)
"YG" (3.000002500000009e-06 1.828392488983895e-13)
"freq" 1.122018454301961e-02
"loopGain" (-5.920895267123551e+03 2.320853253791086e-01)
"ZL" (3.144906800002170e+09 -1.953553530194876e+05)
"ZG" (3.333330555557842e+05 -2.279430727704678e-02)
"YL" (4.770340014283181e-02 -2.910074956494011e-08)
"YG" (3.000002500000012e-06 2.051490114347011e-13)
"freq" 1.258925411794165e-02
"loopGain" (-5.920895264768452e+03 2.604040179444613e-01)
"ZL" (3.144906796863855e+09 -2.191923110160533e+05)
"ZG" (3.333330555557835e+05 -2.557563341733977e-02)
"YL" (4.770340014282717e-02 -3.265157804587946e-08)
"YG" (3.000002500000014e-06 2.301809767115380e-13)
"freq" 1.412537544622751e-02
"loopGain" (-5.920895261803556e+03 2.921781135618030e-01)
"ZL" (3.144906792912951e+09 -2.459378176925326e+05)
"ZG" (3.333330555557826e+05 -2.869633267516130e-02)
"YL" (4.770340014282136e-02 -3.663567312955307e-08)
"YG" (3.000002500000018e-06 2.582673036995929e-13)
"freq" 1.584893192461110e-02
"loopGain" (-5.920895258067082e+03 3.278292351524093e-01)
"ZL" (3.144906787942157e+09 -2.759467696264072e+05)
"ZG" (3.333330555564594e+05 -3.219781489182491e-02)
"YL" (4.770340014281402e-02 -4.110590133712675e-08)
"YG" (3.000002500000022e-06 2.897806808937491e-13)
"freq" 1.778279410038919e-02
"loopGain" (-5.920895253360252e+03 3.678304514078591e-01)
"ZL" (3.144906781673806e+09 -3.096173673088120e+05)
"ZG" (3.333330555564578e+05 -3.612654249679896e-02)
"YL" (4.770340014280480e-02 -4.612157988096299e-08)
"YG" (3.000002500000028e-06 3.251392716629688e-13)
"freq" 1.995262314968875e-02
"loopGain" (-5.920895247440616e+03 4.127125541210177e-01)
"ZL" (3.144906773781025e+09 -3.473963990210008e+05)
"ZG" (3.333330555557783e+05 -4.053464729719325e-02)
"YL" (4.770340014279319e-02 -5.174926376798993e-08)
"YG" (3.000002500000035e-06 3.648122630241427e-13)
"freq" 2.238721138568334e-02
"loopGain" (-5.920895240012604e+03 4.630711014665501e-01)
"ZL" (3.144906763879673e+09 -3.897851694367224e+05)
"ZG" (3.333330555564538e+05 -4.548062239007732e-02)
"YL" (4.770340014277855e-02 -5.806362894420672e-08)
"YG" (3.000002500000044e-06 4.093260914687389e-13)
"freq" 2.511886431509574e-02
"loopGain" (-5.920895230617316e+03 5.195743206733947e-01)
"ZL" (3.144906751356552e+09 -4.373461515777188e+05)
"ZG" (3.333330555550952e+05 -5.103009744487084e-02)
"YL" (4.770340014276014e-02 -6.514846319911628e-08)
"YG" (3.000002500000055e-06 4.592714284552018e-13)
"freq" 2.818382931264447e-02
"loopGain" (-5.920895218813856e+03 5.829719750149666e-01)
"ZL" (3.144906735627719e+09 -4.907104505368497e+05)
"ZG" (3.333330555550916e+05 -5.725671105723142e-02)
"YL" (4.770340014273695e-02 -7.309777797878504e-08)
"YG" (3.000002500000069e-06 5.153110182603384e-13)
"freq" 3.162277660168371e-02
"loopGain" (-5.920895203950288e+03 6.541053126654627e-01)
"ZL" (3.144906715829392e+09 -5.505861777597491e+05)
"ZG" (3.333330555557650e+05 -6.424308655828039e-02)
"YL" (4.770340014270776e-02 -8.201705586061398e-08)
"YG" (3.000002500000087e-06 5.781884721932066e-13)
"freq" 3.548133892335745e-02
"loopGain" (-5.920895185258639e+03 7.339182295530235e-01)
"ZL" (3.144906690907658e+09 -6.177678472417544e+05)
"ZG" (3.333330555550815e+05 -7.208192854728510e-02)
"YL" (4.770340014267098e-02 -9.202465024305246e-08)
"YG" (3.000002500000110e-06 6.487381358653889e-13)
"freq" 3.981071705534961e-02
"loopGain" (-5.920895161688175e+03 8.234697942268190e-01)
"ZL" (3.144906659495247e+09 -6.931469181580853e+05)
"ZG" (3.333330555537185e+05 -8.087725374887460e-02)
"YL" (4.770340014262473e-02 -1.032533558232878e-07)
"YG" (3.000002500000138e-06 7.278961604503604e-13)
"freq" 4.466835921509617e-02
"loopGain" (-5.920895132050907e+03 9.239483010604471e-01)
"ZL" (3.144906620002490e+09 -7.777236239652332e+05)
"ZG" (3.333330555543873e+05 -9.074577140782637e-02)
"YL" (4.770340014256648e-02 -1.158521707021936e-07)
"YG" (3.000002500000174e-06 8.167129248407602e-13)
"freq" 5.011872336272707e-02
"loopGain" (-5.920895094728986e+03 1.036687038077851e+00)
"ZL" (3.144906570260457e+09 -8.726202446493214e+05)
"ZG" (3.333330555536980e+05 -1.018184299812649e-01)
"YL" (4.770340014249314e-02 -1.299882734986014e-07)
"YG" (3.000002500000218e-06 9.163669735381446e-13)
"freq" 5.623413251903472e-02
"loopGain" (-5.920895047719103e+03 1.163181978821513e+00)
"ZL" (3.144906507619985e+09 -9.790959986086288e+05)
"ZG" (3.333330555530059e+05 -1.142421572104191e-01)
"YL" (4.770340014240084e-02 -1.458492417079975e-07)
"YG" (3.000002500000275e-06 1.028180655222463e-12)
"freq" 6.309573444801911e-02
"loopGain" (-5.920894988549995e+03 1.305111632906580e+00)
"ZL" (3.144906428772818e+09 -1.098563751457013e+06)
"ZG" (3.333330555523100e+05 -1.281818084103533e-01)
"YL" (4.770340014228464e-02 -1.636455407419195e-07)
"YG" (3.000002500000347e-06 1.153637669515639e-12)
"freq" 7.079457843841354e-02
"loopGain" (-5.920894914075209e+03 1.464359318629259e+00)
"ZL" (3.144906329537204e+09 -1.232608763516983e+06)
"ZG" (3.333330555522872e+05 -1.438223545405500e-01)
"YL" (4.770340014213832e-02 -1.836133166760907e-07)
"YG" (3.000002500000436e-06 1.294402754774111e-12)
"freq" 7.943282347242786e-02
"loopGain" (-5.920894820317010e+03 1.643038153217666e+00)
"ZL" (3.144906204569808e+09 -1.383009724697680e+06)
"ZG" (3.333330555495471e+05 -1.613713347360398e-01)
"YL" (4.770340014195417e-02 -2.060175297653638e-07)
"YG" (3.000002500000550e-06 1.452343778155353e-12)
"freq" 8.912509381337422e-02
"loopGain" (-5.920894702259075e+03 1.843519092273111e+00)
"ZL" (3.144906047248984e+09 -1.551762356041583e+06)
"ZG" (3.333330555481555e+05 -1.810616148865467e-01)
"YL" (4.770340014172227e-02 -2.311554703053113e-07)
"YG" (3.000002500000692e-06 1.629556521080249e-12)
"freq" 9.999999999999962e-02
"loopGain" (-5.920894553658462e+03 2.068462390482319e+00)
"ZL" (3.144905849212333e+09 -1.741105890650454e+06)
"ZG" (3.333330555460765e+05 -2.031544721333153e-01)
"YL" (4.770340014143035e-02 -2.593607034938114e-07)
"YG" (3.000002500000871e-06 1.828392488979170e-12)
"freq" 1.122018454301959e-01
"loopGain" (-5.920894366570713e+03 2.320852900822933e+00)
"ZL" (3.144905599878843e+09 -1.953552785478439e+06)
"ZG" (3.333330555426301e+05 -2.279430646852297e-01)
"YL" (4.770340014106295e-02 -2.910074956385399e-07)
"YG" (3.000002500001098e-06 2.051490114340345e-12)
"freq" 1.258925411794162e-01
"loopGain" (-5.920894131025773e+03 2.604039680851726e+00)
"ZL" (3.144905285992397e+09 -2.191922058212664e+06)
"ZG" (3.333330555398467e+05 -2.557563231934959e-01)
"YL" (4.770340014060030e-02 -3.265157804434530e-07)
"YG" (3.000002500001382e-06 2.301809767105953e-12)
"freq" 1.412537544622748e-01
"loopGain" (-5.920893834513043e+03 2.921780431343512e+00)
"ZL" (3.144904890853949e+09 -2.459376691033307e+06)
"ZG" (3.333330555363671e+05 -2.869633117479382e-01)
"YL" (4.770340014001785e-02 -3.663567312738602e-07)
"YG" (3.000002500001739e-06 2.582673036982614e-12)
"freq" 1.584893192461107e-01
"loopGain" (-5.920893461227830e+03 3.278291356724247e+00)
"ZL" (3.144904393381336e+09 -2.759465597367105e+06)
"ZG" (3.333330555301525e+05 -3.219781260799982e-01)
"YL" (4.770340013928464e-02 -4.110590133406576e-07)
"YG" (3.000002500002189e-06 2.897806808918692e-12)
"freq" 1.778279410038915e-01
"loopGain" (-5.920892991285033e+03 3.678303108900487e+00)
"ZL" (3.144903767118882e+09 -3.096170708353303e+06)
"ZG" (3.333330555245863e+05 -3.612653939408791e-01)
"YL" (4.770340013836159e-02 -4.612157987663924e-07)
"YG" (3.000002500002755e-06 3.251392716603144e-12)
"freq" 1.995262314968871e-01
"loopGain" (-5.920892399656715e+03 4.127123556343212e+00)
"ZL" (3.144902978691980e+09 -3.473959802433363e+06)
"ZG" (3.333330555162712e+05 -4.053464298207556e-01)
"YL" (4.770340013719948e-02 -5.174926376188251e-07)
"YG" (3.000002500003471e-06 3.648122630203931e-12)
"freq" 2.238721138568329e-01
"loopGain" (-5.920891654835609e+03 4.630708210919985e+00)
"ZL" (3.144901986120477e+09 -3.897845778911353e+06)
"ZG" (3.333330555058761e+05 -4.548061619088283e-01)
"YL" (4.770340013573649e-02 -5.806362893557982e-07)
"YG" (3.000002500004369e-06 4.093260914634414e-12)
"freq" 2.511886431509568e-01
"loopGain" (-5.920890717169129e+03 5.195739246376225e+00)
"ZL" (3.144900736551559e+09 -4.373453160074251e+06)
"ZG" (3.333330554933886e+05 -5.103008896217844e-01)
"YL" (4.770340013389471e-02 -6.514846318693044e-07)
"YG" (3.000002500005500e-06 4.592714284477220e-12)
"freq" 2.818382931264440e-01
"loopGain" (-5.920889536727892e+03 5.829714156011961e+00)
"ZL" (3.144899163439224e+09 -4.907092702626060e+06)
"ZG" (3.333330554767599e+05 -5.725669897387216e-01)
"YL" (4.770340013157608e-02 -7.309777796157213e-07)
"YG" (3.000002500006923e-06 5.153110182497717e-12)
"freq" 3.162277660168364e-01
"loopGain" (-5.920888050627358e+03 6.541045224722057e+00)
"ZL" (3.144897182999924e+09 -5.505845105738855e+06)
"ZG" (3.333330554566486e+05 -6.424306940215262e-01)
"YL" (4.770340012865699e-02 -8.201705583630007e-07)
"YG" (3.000002500008716e-06 5.781884721782790e-12)
"freq" 3.548133892335737e-01
"loopGain" (-5.920886179746722e+03 7.339171133720487e+00)
"ZL" (3.144894689790048e+09 -6.177654922786468e+06)
"ZG" (3.333330554309972e+05 -7.208190444930249e-01)
"YL" (4.770340012498223e-02 -9.202465020870839e-07)
"YG" (3.000002500010973e-06 6.487381358443098e-12)
"freq" 3.981071705534953e-01
"loopGain" (-5.920883824440952e+03 8.234682175843695e+00)
"ZL" (3.144891551030400e+09 -6.931435917016960e+06)
"ZG" (3.333330553990970e+05 -8.087722006372285e-01)
"YL" (4.770340012035586e-02 -1.032533557747755e-06)
"YG" (3.000002500013815e-06 7.278961604205801e-12)
"freq" 4.466835921509609e-01
"loopGain" (-5.920880859278590e+03 9.239460739853419e+00)
"ZL" (3.144887599548414e+09 -7.777189252030172e+06)
"ZG" (3.333330553575212e+05 -9.074572327637992e-01)
"YL" (4.770340011453170e-02 -1.158521706336682e-06)
"YG" (3.000002500017391e-06 8.167129247986983e-12)
"freq" 5.011872336272697e-01
"loopGain" (-5.920877126390426e+03 1.036683892254665e+01)
"ZL" (3.144882624976437e+09 -8.726136074878493e+06)
"ZG" (3.333330553062212e+05 -1.018183620972082e+00)
"YL" (4.770340010719944e-02 -1.299882734018068e-06)
"YG" (3.000002500021895e-06 9.163669734787256e-12)
"freq" 5.623413251903461e-01
"loopGain" (-5.920872426952802e+03 1.163177535237016e+01)
"ZL" (3.144876362353605e+09 -9.790866233873932e+06)
"ZG" (3.333330552410698e+05 -1.142420612008467e+00)
"YL" (4.770340009796874e-02 -1.458492415712718e-06)
"YG" (3.000002500027563e-06 1.028180655138535e-11)
"freq" 6.309573444801898e-01
"loopGain" (-5.920866510716052e+03 1.305105356180693e+01)
"ZL" (3.144868478235552e+09 -1.098550508644551e+07)
"ZG" (3.333330551606345e+05 -1.281816731538569e+00)
"YL" (4.770340008634789e-02 -1.636455405487893e-06)
"YG" (3.000002500034700e-06 1.153637669397094e-11)
"freq" 7.079457843841340e-01
"loopGain" (-5.920859062660300e+03 1.464350452533723e+01)
"ZL" (3.144858552779013e+09 -1.232590057595317e+07)
"ZG" (3.333330550580412e+05 -1.438221630279204e+00)
"YL" (4.770340007171817e-02 -1.836133164032872e-06)
"YG" (3.000002500043686e-06 1.294402754606655e-11)
"freq" 7.943282347242770e-01
"loopGain" (-5.920849686108200e+03 1.643025629531733e+01)
"ZL" (3.144846057431197e+09 -1.382983301982812e+07)
"ZG" (3.333330549284249e+05 -1.613710647024497e+00)
"YL" (4.770340005330043e-02 -2.060175293800187e-06)
"YG" (3.000002500054996e-06 1.452343777918829e-11)
"freq" 8.912509381337405e-01
"loopGain" (-5.920837881794938e+03 1.843501402147083e+01)
"ZL" (3.144830326894210e+09 -1.551725033177272e+07)
"ZG" (3.333330547662108e+05 -1.810612334610217e+00)
"YL" (4.770340003011380e-02 -2.311554697609967e-06)
"YG" (3.000002500069236e-06 1.629556520746149e-11)
"freq" 9.999999999999942e-01
"loopGain" (-5.920823021109696e+03 2.068437402575632e+01)
"ZL" (3.144810523529925e+09 -1.741053171027901e+07)
"ZG" (3.333330545610408e+05 -2.031539330037595e+00)
"YL" (4.770340000092362e-02 -2.593607027249468e-06)
"YG" (3.000002500087163e-06 1.828392488507238e-11)
"freq" 1.122018454301957e+00
"loopGain" (-5.920804312716844e+03 2.320817604580998e+01)
"ZL" (3.144785592951607e+09 -1.953478317673737e+07)
"ZG" (3.333330543052193e+05 -2.279423048073771e+00)
"YL" (4.770339996417541e-02 -2.910074945524899e-06)
"YG" (3.000002500109733e-06 2.051490113673714e-11)
"freq" 1.258925411794160e+00
"loopGain" (-5.920780760398637e+03 2.603989823787313e+01)
"ZL" (3.144754207711914e+09 -2.191816870657970e+07)
"ZG" (3.333330539794663e+05 -2.557552480386473e+00)
"YL" (4.770339991791207e-02 -3.265157789093667e-06)
"YG" (3.000002500138146e-06 2.301809766164318e-11)
"freq" 1.412537544622746e+00
"loopGain" (-5.920751110057628e+03 2.921710006710702e+01)
"ZL" (3.144714696968027e+09 -2.459228111530271e+07)
"ZG" (3.333330535725591e+05 -2.869617935242219e+00)
"YL" (4.770339985967002e-02 -3.663567291069060e-06)
"YG" (3.000002500173915e-06 2.582673035652524e-11)
"freq" 1.584893192461104e+00
"loopGain" (-5.920713782922441e+03 3.278191879913571e+01)
"ZL" (3.144664957294616e+09 -2.759255726604667e+07)
"ZG" (3.333330530589448e+05 -3.219759824776930e+00)
"YL" (4.770339978634766e-02 -4.110590102797537e-06)
"YG" (3.000002500218945e-06 2.897806807039881e-11)
"freq" 1.778279410038912e+00
"loopGain" (-5.920666791521254e+03 3.678162595306573e+01)
"ZL" (3.144602340997178e+09 -3.095874263970906e+07)
"ZG" (3.333330524122728e+05 -3.612623647901586e+00)
"YL" (4.770339969404026e-02 -4.612157944427511e-06)
"YG" (3.000002500275637e-06 3.251392713949227e-11)
"freq" 1.995262314968867e+00
"loopGain" (-5.920607633911575e+03 4.126925077635774e+01)
"ZL" (3.144523515284091e+09 -3.473541074201732e+07)
"ZG" (3.333330515979113e+05 -4.053421508138830e+00)
"YL" (4.770339957783210e-02 -5.174926315115196e-06)
"YG" (3.000002500347006e-06 3.648122626455218e-11)
"freq" 2.238721138568325e+00
"loopGain" (-5.920533160542036e+03 4.630427855832585e+01)
"ZL" (3.144424285192179e+09 -3.897254328367488e+07)
"ZG" (3.333330505729089e+05 -4.548001175956155e+00)
"YL" (4.770339943153467e-02 -5.806362807289997e-06)
"YG" (3.000002500436855e-06 4.093260909339214e-11)
"freq" 2.511886431509564e+00
"loopGain" (-5.920439406802862e+03 5.195343240609220e+01)
"ZL" (3.144299370812336e+09 -4.372617747445549e+07)
"ZG" (3.333330492832426e+05 -5.102923519552830e+00)
"YL" (4.770339924735718e-02 -6.514846196836285e-06)
"YG" (3.000002500549967e-06 4.592714276997558e-11)
"freq" 2.818382931264435e+00
"loopGain" (-5.920321382082871e+03 5.829154794269192e+01)
"ZL" (3.144142127029591e+09 -4.905912710469842e+07)
"ZG" (3.333330476596983e+05 -5.725549315925614e+00)
"YL" (4.770339901549139e-02 -7.309777624029967e-06)
"YG" (3.000002500692367e-06 5.153110171932434e-11)
"freq" 3.162277660168358e+00
"loopGain" (-5.920172804447852e+03 6.540255125312477e+01)
"ZL" (3.143944191177740e+09 -5.504178428442934e+07)
"ZG" (3.333330456157763e+05 -6.424136618296747e+00)
"YL" (4.770339872358972e-02 -8.201705340493821e-06)
"YG" (3.000002500871639e-06 5.781884706858918e-11)
"freq" 3.548133892335731e+00
"loopGain" (-5.919985766887293e+03 7.338055124253519e+01)
"ZL" (3.143695040092620e+09 -6.175300866757047e+07)
"ZG" (3.333330430428775e+05 -7.207949874409620e+00)
"YL" (4.770339835610724e-02 -9.202464677431847e-06)
"YG" (3.000002501097329e-06 6.487381337362522e-11)
"freq" 3.981071705534945e+00
"loopGain" (-5.919750317345914e+03 8.233105833900947e+01)
"ZL" (3.143381433542105e+09 -6.928111059141952e+07)
"ZG" (3.333330398041254e+05 -8.087382207940061e+00)
"YL" (4.770339789347428e-02 -1.032533509235709e-05)
"YG" (3.000002501381454e-06 7.278961574428794e-11)
"freq" 4.466835921509600e+00
"loopGain" (-5.919453930557211e+03 9.237234210294925e+01)
"ZL" (3.142986715158915e+09 -7.772493360614319e+07)
"ZG" (3.333330357288616e+05 -9.074092454641594e+00)
"YL" (4.770339731105380e-02 -1.158521637811597e-05)
"YG" (3.000002501739148e-06 8.167129205925733e-11)
"freq" 5.011872336272687e+00
"loopGain" (-5.919080843889276e+03 1.036369406607833e+02)
"ZL" (3.142489934915967e+09 -8.719504009590816e+07)
"ZG" (3.333330305983406e+05 -1.018115845787607e+01)
"YL" (4.770339657782997e-02 -1.299882637223815e-05)
"YG" (3.000002502189457e-06 9.163669675374243e-11)
"freq" 5.623413251903450e+00
"loopGain" (-5.918611222497213e+03 1.162733348060727e+02)
"ZL" (3.141864748706073e+09 -9.781500073322207e+07)
"ZG" (3.333330241429606e+05 -1.142324899686746e+01)
"YL" (4.770339565475593e-02 -1.458492278987205e-05)
"YG" (3.000002502756363e-06 1.028180646746222e-10)
"freq" 6.309573444801886e+00
"loopGain" (-5.918020110096353e+03 1.304477988403125e+02)
"ZL" (3.141078039122396e+09 -1.097227837536009e+08)
"ZG" (3.333330160192248e+05 -1.281681564947133e+01)
"YL" (4.770339449267454e-02 -1.636455212357979e-05)
"YG" (3.000002503470056e-06 1.153637657542636e-10)
"freq" 7.079457843841326e+00
"loopGain" (-5.917276111541084e+03 1.463464384500409e+02)
"ZL" (3.140088189872334e+09 -1.230722329022485e+08)
"ZG" (3.333330057976424e+05 -1.438030763945372e+01)
"YL" (4.770339302970079e-02 -1.836132891229625e-05)
"YG" (3.000002504368540e-06 1.294402737861791e-10)
"freq" 7.943282347242755e+00
"loopGain" (-5.916339738770410e+03 1.641774225194906e+02)
"ZL" (3.138842929294758e+09 -1.380346120877839e+08)
"ZG" (3.333329929393046e+05 -1.613441155587466e+01)
"YL" (4.770339118792620e-02 -2.060174908455373e-05)
"YG" (3.000002505499666e-06 1.452343754266080e-10)
"freq" 8.912509381337388e+00
"loopGain" (-5.915161336568504e+03 1.841734102102720e+02)
"ZL" (3.137276641284014e+09 -1.548001791314277e+08)
"ZG" (3.333329767639968e+05 -1.810231852458710e+01)
"YL" (4.770338886926950e-02 -2.311554153295982e-05)
"YG" (3.000002506923670e-06 1.629556487335759e-10)
"freq" 9.999999999999924e+00
"loopGain" (-5.913678483351392e+03 2.065941656929243e+02)
"ZL" (3.135307020471739e+09 -1.735797283508153e+08)
"ZG" (3.333329564249637e+05 -2.031002232574234e+01)
"YL" (4.770338595025397e-02 -2.593606258385577e-05)
"YG" (3.000002508716384e-06 1.828392441313805e-10)
"freq" 1.122018454301955e+01
"loopGain" (-5.911812738466800e+03 2.317293393423128e+02)
"ZL" (3.132830924828942e+09 -1.946060094941993e+08)
"ZG" (3.333329308548588e+05 -2.278664971216407e+01)
"YL" (4.770338227543171e-02 -2.910073859475872e-05)
"YG" (3.000002510973275e-06 2.051490047011237e-10)
"freq" 1.258925411794157e+01
"loopGain" (-5.909465578015498e+03 2.599013739310377e+02)
"ZL" (3.129719254819984e+09 -2.181348853765785e+08)
"ZG" (3.333328987213711e+05 -2.556482759432947e+01)
"YL" (4.770337764910527e-02 -3.265156255008792e-05)
"YG" (3.000002513814534e-06 2.301809672001067e-10)
"freq" 1.412537544622743e+01
"loopGain" (-5.906513326678623e+03 2.914684646989290e+02)
"ZL" (3.125810663402936e+09 -2.444460276820064e+08)
"ZG" (3.333328583563316e+05 -2.868108805627684e+01)
"YL" (4.770337182490676e-02 -3.663565124116849e-05)
"YG" (3.000002517391466e-06 2.582672902643426e-10)
"freq" 1.584893192461101e+01
"loopGain" (-5.902800853772236e+03 3.268274594921627e+02)
"ZL" (3.120903883484252e+09 -2.738428645580386e+08)
"ZG" (3.333328076814759e+05 -3.217631499104552e+01)
"YL" (4.770336449267724e-02 -4.110587041896660e-05)
"YG" (3.000002521894555e-06 2.897806619159572e-10)
"freq" 1.778279410038909e+01
"loopGain" (-5.898133757363019e+03 3.664165244047114e+02)
"ZL" (3.114748451769799e+09 -3.066513776584376e+08)
"ZG" (3.333327441090262e+05 -3.609623294052221e+01)
"YL" (4.770335526195044e-02 -4.612153620790960e-05)
"YG" (3.000002527563607e-06 3.251392448561319e-10)
"freq" 1.995262314968863e+01
"loopGain" (-5.892268713774341e+03 4.107173150105518e+02)
"ZL" (3.107033625956594e+09 -3.432171933324718e+08)
"ZG" (3.333326644276970e+05 -4.049193995608965e+01)
"YL" (4.770334364115898e-02 -5.174920207817750e-05)
"YG" (3.000002534700517e-06 3.648122251584885e-10)
"freq" 2.238721138568321e+01
"loopGain" (-5.884901624849990e+03 4.602562748098219e+02)
"ZL" (3.097375351032297e+09 -3.839002155069503e+08)
"ZG" (3.333325646673110e+05 -4.542048386255572e+01)
"YL" (4.770332901145743e-02 -5.806354180505758e-05)
"YG" (3.000002543685349e-06 4.093260379820972e-10)
"freq" 2.511886431509559e+01
"loopGain" (-5.875653160739831e+03 5.156045204469822e+02)
"ZL" (3.085301260353961e+09 -4.290658031233569e+08)
"ZG" (3.333324399458344e+05 -5.094548064155709e+01)
"YL" (4.770331059376716e-02 -6.514834011184433e-05)
"YG" (3.000002554996575e-06 4.592713529033450e-10)
"freq" 2.818382931264430e+01
"loopGain" (-5.864051282847027e+03 5.773755546591651e+02)
"ZL" (3.070233935526296e+09 -4.790712063303517e+08)
"ZG" (3.333322842888258e+05 -5.713776957886880e+01)
"YL" (4.770328740728925e-02 -7.309760411347731e-05)
"YG" (3.000002569236552e-06 5.153109115405543e-10)
"freq" 3.162277660168353e+01
"loopGain" (-5.849510365468399e+03 6.462197594460308e+02)
"ZL" (3.051473053208780e+09 -5.342456636230054e+08)
"ZG" (3.333320904517625e+05 -6.407610257505389e+01)
"YL" (4.770325821727520e-02 -8.201681026949044e-05)
"YG" (3.000002587163600e-06 5.781883214476009e-10)
"freq" 3.548133892335724e+01
"loopGain" (-5.831306646557763e+03 7.228142503736231e+02)
"ZL" (3.028177682554331e+09 -5.948622753430524e+08)
"ZG" (3.333318497274041e+05 -7.184785608426124e+01)
"YL" (4.770322146927600e-02 -9.202430333663908e-05)
"YG" (3.000002609732387e-06 6.487379229317267e-10)
"freq" 3.981071705534938e+01
"loopGain" (-5.808549983436061e+03 8.078462117777804e+02)
"ZL" (2.999350942914226e+09 -6.610996060411705e+08)
"ZG" (3.333315517879982e+05 -8.054976197637909e+01)
"YL" (4.770317520636694e-02 -1.032528658054328e-04)
"YG" (3.000002638144756e-06 7.278958596738605e-10)
"freq" 4.466835921509592e+01
"loopGain" (-5.780152340657339e+03 9.019872892100996e+02)
"ZL" (2.963830546098945e+09 -7.329910989951668e+08)
"ZG" (3.333311845766068e+05 -9.028864912633063e+01)
"YL" (4.770311696494346e-02 -1.158514785344266e-04)
"YG" (3.000002673913730e-06 8.167124999831840e-10)
"freq" 5.011872336272678e+01
"loopGain" (-5.744794199755494e+03 1.005856028285512e+03)
"ZL" (2.920290438472695e+09 -8.103610802881231e+08)
"ZG" (3.333307343156661e+05 -1.011822025692169e+02)
"YL" (4.770304364353894e-02 -1.299872957871560e-04)
"YG" (3.000002718944075e-06 9.163663734117954e-10)
"freq" 5.623413251903440e+01
"loopGain" (-5.700891282213637e+03 1.119964811246722e+03)
"ZL" (2.867260688095775e+09 -8.927477601486362e+08)
"ZG" (3.333301857021402e+05 -1.133597631503233e+02)
"YL" (4.770295133768219e-02 -1.458478606565631e-04)
"YG" (3.000002775633724e-06 1.028179807523118e-09)
"freq" 6.309573444801875e+01
"loopGain" (-5.646565760093396e+03 1.244647438900464e+03)
"ZL" (2.803174540610583e+09 -9.793166449944054e+08)
"ZG" (3.333295223678061e+05 -1.269632201680692e+02)
"YL" (4.770283513200459e-02 -1.636435899597003e-04)
"YG" (3.000002847001449e-06 1.153636472111424e-09)
"freq" 7.079457843841314e+01
"loopGain" (-5.579628610827042e+03 1.379963759644202e+03)
"ZL" (2.726452402230792e+09 -1.068772516255666e+09)
"ZG" (3.333287277201517e+05 -1.421481080959024e+02)
"YL" (4.770268883853434e-02 -1.836105611314701e-04)
"YG" (3.000002936847595e-06 1.294401063400920e-09)
"freq" 7.943282347242742e+01
"loopGain" (-5.497582956462922e+03 1.525579064717699e+03)
"ZL" (2.635631113861392e+09 -1.159284589944226e+09)
"ZG" (3.333277862416148e+05 -1.590850819656207e+02)
"YL" (4.770250466725123e-02 -2.060136374702561e-04)
"YG" (3.000003049956401e-06 1.452341389036520e-09)
"freq" 8.912509381337372e+01