HEADER
"PSFversion" "1.00"
"simulator" "spectre"
"version" "25.1.0.235.isr5"
"date" "12:22:37 PM, Sun Jul 12, 2026"
"design" "// uA741 open-loop gain rig (Gross/Roberts Ch.10 core), Spectre form."
"analysis type" "ac"
"analysis name" "ac"
"analysis description" "AC Analysis `ac': freq = (100 mHz -> 100 MHz)"
"xVecSorted" "ascending"
"tolerance.relative" 1.000000000000000e-03
"start" 1.000000000000000e-01
"stop" 1.000000000000000e+08
"operating point producer" "dcOp"
TYPE
"sweep" FLOAT DOUBLE PROP(
"key" "sweep"
)
"V" COMPLEX DOUBLE PROP(
"units" "V"
"key" "node"
"tolerance" 1.000000000000000e-06
)
"I" COMPLEX DOUBLE PROP(
"units" "A"
"key" "branch"
"tolerance" 1.000000000000000e-12
)
"MMF" COMPLEX DOUBLE PROP(
"units" "A*turn"
"key" "node"
"tolerance" 1.000000000000000e-12
)
"Wb" COMPLEX DOUBLE PROP(
"units" "Wb"
"key" "node"
"tolerance" 1.000000000000000e-09
)
"Temp" COMPLEX DOUBLE PROP(
"units" "C"
"key" "node"
"tolerance" 1.000000000000000e-04
)
"Pwr" COMPLEX DOUBLE PROP(
"units" "W"
"key" "node"
"tolerance" 1.000000000000000e-09
)
"U" COMPLEX DOUBLE PROP(
"units" ""
"key" "node"
"tolerance" 1.000000000000000e-06
)
"V/Sec" COMPLEX DOUBLE PROP(
"units" "V/s"
"key" "node"
"tolerance" 9.999999999999999e-05
)
"I/Sec" COMPLEX DOUBLE PROP(
"units" "A/s"
"key" "node"
"tolerance" 1.000000000000000e-06
)
"1/Sec" COMPLEX DOUBLE PROP(
"units" "1/s"
"key" "node"
"tolerance" 9.999999999999999e-05
)
"HOD" COMPLEX DOUBLE PROP(
"units" ""
"key" "node"
"tolerance" 1.000000000000000e-02
)
"Q" COMPLEX DOUBLE PROP(
"units" "Coul"
"key" "node"
"tolerance" 1.000000000000000e-15
)
"Efield" COMPLEX DOUBLE PROP(
"units" "V/m"
"key" "node"
"tolerance" 1.000000000000000e-06
"sigtype" "optical"
)
SWEEP
"freq" "sweep" PROP(
"sweep_direction" 0
"units" "Hz"
"plot" 0
"grid" 3
)
TRACE
"25" "V"
"26" "V"
"1" "V"
"22" "V"
"2" "V"
"4" "V"
"12" "V"
"13" "V"
"7" "V"
"3" "V"
"8" "V"
"9" "V"
"10" "V"
"11" "V"
"16" "V"
"6" "V"
"14" "V"
"15" "V"
"17" "V"
"23" "V"
"18" "V"
"19" "V"
"21" "V"
"20" "V"
"5" "V"
"24" "V"
"Lf:1" "I"
"Vcc:p" "I"
"Vee:p" "I"
"Vin:p" "I"
VALUE
"freq" 1.000000000000000e-01
"25" (0.000000000000000e+00 0.000000000000000e+00)
"26" (0.000000000000000e+00 0.000000000000000e+00)
"1" (1.000000000000000e+00 0.000000000000000e+00)
"22" (2.941564713092487e+05 -1.129061007708453e+04)
"2" (-7.451034225734355e-13 2.816529567049229e-14)
"4" (-1.488055836876073e-03 4.852844098954915e-05)
"12" (7.916499137995089e-01 -1.616111303911478e-03)
"13" (2.042654151330345e-01 1.704745423777591e-03)
"7" (2.851661704890032e-01 2.210680658311130e-03)
"3" (5.828733487357348e-01 -3.240121425882898e-03)
"8" (-4.263831524534061e+02 1.636435435932048e+01)
"9" (2.706140806076524e-01 2.100818430263691e-03)
"10" (6.132766287701852e-02 4.760960171552621e-04)
"11" (4.156407606716514e-02 1.236491254575334e-03)
"16" (2.945272901653525e+05 -1.130488482587935e+04)
"6" (6.947844187135607e-01 -2.666899692570321e-02)
"14" (-3.890354833647028e+02 1.493096391781906e+01)
"15" (-2.345313302694933e+02 9.001035636388487e+00)
"17" (2.941861511066840e+05 -1.129179157978091e+04)
"23" (2.941527460088448e+05 -1.129047345164043e+04)
"18" (2.941963192532684e+05 -1.129218186361826e+04)
"19" (2.942993085115073e+05 -1.129613490325660e+04)
"21" (2.941601961244762e+05 -1.129075934297191e+04)
"20" (1.475672932930642e-02 1.172113056345020e-03)
"5" (6.798121506164019e-04 -2.609391365042804e-05)
"24" (6.239547672182859e-04 -2.112838919628822e-05)
"Lf:1" (-1.796956404291169e-05 -4.681645645133623e-04)
"Vcc:p" (3.239097757446765e+00 -1.240924683209806e-01)
"Vee:p" (-3.239080168583004e+00 1.245506064530597e-01)
"Vin:p" (-2.769669389598994e-07 -2.148585270613243e-09)
"freq" 1.122018454301963e-01
"25" (0.000000000000000e+00 0.000000000000000e+00)
"26" (0.000000000000000e+00 0.000000000000000e+00)
"1" (1.000000000000000e+00 0.000000000000000e+00)
"22" (2.940444688509548e+05 -1.266346083791778e+04)
"2" (-5.916305871143935e-13 2.509263207908384e-14)
"4" (-1.487574303316033e-03 5.442906843210946e-05)
"12" (7.916338822582857e-01 -1.812616256766533e-03)
"13" (2.042823261895694e-01 1.912027497515435e-03)
"7" (2.851881012015941e-01 2.479479977777982e-03)
"3" (5.828412072506406e-01 -3.634091756498814e-03)
"8" (-4.262208193586981e+02 1.835411619025010e+01)
"9" (2.706349214600125e-01 2.356259468850168e-03)
"10" (6.133238591395521e-02 5.339851043314775e-04)
"11" (4.157634216458148e-02 1.386837727267902e-03)
"16" (2.944151465313926e+05 -1.267946131621552e+04)
"6" (6.945198642021420e-01 -2.991171703806968e-02)
"14" (-3.888873693908852e+02 1.674643801672229e+01)
"15" (-2.344420407225582e+02 1.009548229097815e+01)
"17" (2.940741373491213e+05 -1.266477622197930e+04)
"23" (2.940407449692198e+05 -1.266330612890367e+04)
"18" (2.940843016242555e+05 -1.266521395778257e+04)
"19" (2.941872516700175e+05 -1.266964762071151e+04)
"21" (2.940481922476977e+05 -1.266362680844927e+04)
"20" (1.476835847226154e-02 1.314631107964536e-03)
"5" (6.795533008821780e-04 -2.926670859400764e-05)
"24" (6.237451751413161e-04 -2.369741909899232e-05)
"Lf:1" (-1.796273832464827e-05 -4.170932352050745e-04)
"Vcc:p" (3.237864433198622e+00 -1.392352842956264e-01)
"Vee:p" (-3.237846950613843e+00 1.396411319717727e-01)
"Vin:p" (-2.769882497385620e-07 -2.409834506320660e-09)
"freq" 1.258925411794167e-01
"25" (0.000000000000000e+00 0.000000000000000e+00)
"26" (0.000000000000000e+00 0.000000000000000e+00)
"1" (1.000000000000000e+00 0.000000000000000e+00)
"22" (2.939035873293618e+05 -1.420183944112182e+04)
"2" (-4.697229750223621e-13 2.235293227254288e-14)
"4" (-1.486968609640675e-03 6.104115133541442e-05)
"12" (7.916137170944447e-01 -2.032814457615890e-03)
"13" (2.043035976456226e-01 2.144302246962742e-03)
"7" (2.852156865975636e-01 2.780689294224710e-03)
"3" (5.828007783047271e-01 -4.075564383841806e-03)
"8" (-4.260166297924453e+02 2.058379011591067e+01)
"9" (2.706611359827879e-01 2.642499853408436e-03)
"10" (6.133832675347591e-02 5.988540646006124e-04)
"11" (4.159177099082678e-02 1.555311962555692e-03)
"16" (2.942740874329653e+05 -1.421977480354880e+04)
"6" (6.941870961300889e-01 -3.354542206945037e-02)
"14" (-3.887010652480114e+02 1.878080977230161e+01)
"15" (-2.343297284803062e+02 1.132188998811099e+01)
"17" (2.939332416148217e+05 -1.420330590781906e+04)
"23" (2.938998652320899e+05 -1.420166462741791e+04)
"18" (2.939434010202789e+05 -1.420379681736510e+04)
"19" (2.940463017428964e+05 -1.420876905733161e+04)
"21" (2.939073089418736e+05 -1.420202428685486e+04)
"20" (1.478298610989414e-02 1.474333050465629e-03)
"5" (6.792277085248702e-04 -3.282205735989426e-05)
"24" (6.234815411892901e-04 -2.657620499065093e-05)
"Lf:1" (-1.795414507385870e-05 -3.715566329640213e-04)
"Vcc:p" (3.236313104772341e+00 -1.561980443639959e-01)
"Vee:p" (-3.236295755918775e+00 1.565569893189545e-01)
"Vin:p" (-2.770150553553161e-07 -2.702583470963294e-09)
"freq" 1.412537544622754e-01
"25" (0.000000000000000e+00 0.000000000000000e+00)
"26" (0.000000000000000e+00 0.000000000000000e+00)
"1" (1.000000000000000e+00 0.000000000000000e+00)
"22" (2.937264198373571e+05 -1.592512952912847e+04)
"2" (-3.728885610532094e-13 1.990984875474208e-14)
"4" (-1.486206911241968e-03 6.844800099035138e-05)
"12" (7.915883581157388e-01 -2.279480415054890e-03)
"13" (2.043303478572350e-01 2.404496343257724e-03)
"7" (2.852503769910756e-01 3.118103849847268e-03)
"3" (5.827499363286044e-01 -4.570101885159572e-03)
"8" (-4.257598483995182e+02 2.308147012738864e+01)
"9" (2.706941024158895e-01 2.963146217253325e-03)
"10" (6.134579773779647e-02 6.715202478914613e-04)
"11" (4.161117372313982e-02 1.744036741460440e-03)
"16" (2.940966966267698e+05 -1.594523330713339e+04)
"6" (6.937686190716404e-01 -3.761589686678602e-02)
"14" (-3.884667759148528e+02 2.105971235956357e+01)
"15" (-2.341884886778118e+02 1.269571151949380e+01)
"17" (2.937560562494331e+05 -1.592676618062571e+04)
"23" (2.937226999841613e+05 -1.592493233588063e+04)
"18" (2.937662095309612e+05 -1.592731665568206e+04)
"19" (2.938690482265811e+05 -1.593289221251893e+04)
"21" (2.937301392060848e+05 -1.592533565804195e+04)
"20" (1.480138129623552e-02 1.653231117800620e-03)
"5" (6.788182553850342e-04 -3.680475750249115e-05)
"24" (6.231500046927987e-04 -2.980101970309315e-05)
"Lf:1" (-1.794333250530632e-05 -3.309505776448987e-04)
"Vcc:p" (3.234362210405830e+00 -1.751944953435417e-01)
"Vee:p" (-3.234345029694836e+00 1.755113039156690e-01)
"Vin:p" (-2.770487651255343e-07 -3.030520842439908e-09)
"freq" 1.584893192461113e-01
"25" (0.000000000000000e+00 0.000000000000000e+00)
"26" (0.000000000000000e+00 0.000000000000000e+00)
"1" (1.000000000000000e+00 0.000000000000000e+00)
"22" (2.935036826573311e+05 -1.785474762592912e+04)
"2" (-2.959705589869137e-13 1.773097070500819e-14)
"4" (-1.485249294517378e-03 7.674166568861198e-05)
"12" (7.915564764914937e-01 -2.555679619907691e-03)
"13" (2.043639785567926e-01 2.695843397241915e-03)
"7" (2.852939901863792e-01 3.495916916979762e-03)
"3" (5.826860171622447e-01 -5.123850224146079e-03)
"8" (-4.254370196304870e+02 2.587819662527547e+01)
"9" (2.707355482266678e-01 3.322183443242911e-03)
"10" (6.135519035244552e-02 7.528867245902409e-04)
"11" (4.163556708014368e-02 1.955357474971762e-03)
"16" (2.938736786933574e+05 -1.787728029622178e+04)
"6" (6.932425044958230e-01 -4.217372804287223e-02)
"14" (-3.881722244438181e+02 2.361146728040696e+01)
"15" (-2.340109202369696e+02 1.423402031738107e+01)
"17" (2.935332965987665e+05 -1.785657567630832e+04)
"23" (2.934999656254158e+05 -1.785452549969274e+04)
"18" (2.935434421812145e+05 -1.785719284890338e+04)
"19" (2.936462028957197e+05 -1.786344396027034e+04)
"21" (2.935073992051454e+05 -1.785497771004672e+04)
"20" (1.482450795320925e-02 1.853548575378812e-03)
"5" (6.783034857922141e-04 -4.126430479800346e-05)
"24" (6.227331928755186e-04 -3.341194024489751e-05)
"Lf:1" (-1.792973404038787e-05 -2.947363401697202e-04)
"Vcc:p" (3.231909521680330e+00 -1.964607364243782e-01)
"Vee:p" (-3.231892552352182e+00 1.967396172051908e-01)
"Vin:p" (-2.770911454704275e-07 -3.397722165066579e-09)
"freq" 1.778279410038922e-01
"25" (0.000000000000000e+00 0.000000000000000e+00)
"26" (0.000000000000000e+00 0.000000000000000e+00)
"1" (1.000000000000000e+00 0.000000000000000e+00)
"22" (2.932237530413351e+05 -2.001425683177398e+04)
"2" (-2.348728038466229e-13 1.578739478491158e-14)
"4" (-1.484045789642474e-03 8.602341915971795e-05)
"12" (7.915164085924868e-01 -2.864784819299178e-03)
"13" (2.044062446427958e-01 3.021901125589183e-03)
"7" (2.853488019830243e-01 3.918742057453371e-03)
"3" (5.826056854111821e-01 -5.743571378543910e-03)
"8" (-4.250312978136861e+02 2.900812120433091e+01)
"9" (2.707876361174162e-01 3.723995816915320e-03)
"10" (6.136699471762735e-02 8.439470793535486e-04)
"11" (4.166622394245520e-02 2.191854654836138e-03)
"16" (2.935933962346648e+05 -2.003950852741404e+04)
"6" (6.925812989837455e-01 -4.727457252646819e-02)
"14" (-3.878020407135135e+02 2.646723471442441e+01)
"15" (-2.337877573799495e+02 1.595560109256367e+01)
"17" (2.932533387423225e+05 -2.001629982888293e+04)
"23" (2.932200395551233e+05 -2.001400691412063e+04)
"18" (2.932634746487904e+05 -2.001699164550596e+04)
"19" (2.933661373588964e+05 -2.002399879843327e+04)
"21" (2.932274660439075e+05 -2.001451383513200e+04)
"20" (1.485357286466290e-02 2.077731519497171e-03)
"5" (6.776565383251273e-04 -4.625515600359048e-05)
"24" (6.222093558944619e-04 -3.745306055897149e-05)
"Lf:1" (-1.791264010090431e-05 -2.624335043471274e-04)
"Vcc:p" (3.228827053753348e+00 -2.202564747024927e-01)
"Vee:p" (-3.228810350099737e+00 2.205011349437578e-01)
"Vin:p" (-2.771444078553814e-07 -3.808671490416916e-09)
"freq" 1.995262314968879e-01
"25" (0.000000000000000e+00 0.000000000000000e+00)
"26" (0.000000000000000e+00 0.000000000000000e+00)
"1" (1.000000000000000e+00 0.000000000000000e+00)
"22" (2.928721008712216e+05 -2.242944104206272e+04)
"2" (-1.863416159587761e-13 1.405334266705404e-14)
"4" (-1.482533927099932e-03 9.640407924454058e-05)
"12" (7.914660746412601e-01 -3.210486640395371e-03)
"13" (2.044593399925148e-01 3.386562556524069e-03)
"7" (2.854176574600353e-01 4.391627652074205e-03)
"3" (5.825047713492979e-01 -6.436664639434658e-03)
"8" (-4.245216234199257e+02 3.250861422317692e+01)
"9" (2.708530697792101e-01 4.173380833882008e-03)
"10" (6.138182355457772e-02 9.457885402002750e-04)
"11" (4.170473559518614e-02 2.456351981041971e-03)
"16" (2.932413008177712e+05 -2.245773435651171e+04)
"6" (6.917506817859642e-01 -5.297933286905494e-02)
"14" (-3.873370098462794e+02 2.966111166632263e+01)
"15" (-2.335074165425835e+02 1.788100900188934e+01)
"17" (2.929016510960960e+05 -2.243172509627502e+04)
"23" (2.928683918391806e+05 -2.242916014216009e+04)
"18" (2.929117748474390e+05 -2.243250039464131e+04)
"19" (2.930143144428130e+05 -2.244035310305570e+04)
"21" (2.928758094202031e+05 -2.242972824953279e+04)
"20" (1.489008468263410e-02 2.328456577766460e-03)
"5" (6.768438323170739e-04 -5.183690038383786e-05)
"24" (6.215513032960604e-04 -4.197263040852373e-05)
"Lf:1" (-1.789116341170506e-05 -2.336136065802964e-04)
"Vcc:p" (3.224954807036362e+00 -2.468658456330986e-01)
"Vee:p" (-3.224938437104116e+00 2.470795412232540e-01)
"Vin:p" (-2.772113169360879e-07 -4.268275508093868e-09)
"freq" 2.238721138568338e-01
"25" (0.000000000000000e+00 0.000000000000000e+00)
"26" (0.000000000000000e+00 0.000000000000000e+00)
"1" (1.000000000000000e+00 0.000000000000000e+00)
"22" (2.924305945051765e+05 -2.512831446491887e+04)
"2" (-1.477925303693334e-13 1.250582033978409e-14)
"4" (-1.480635753297036e-03 1.080040483474812e-04)
"12" (7.914028793540216e-01 -3.596794953148493e-03)
"13" (2.045260022710279e-01 3.794057466367714e-03)
"7" (2.855041068950915e-01 4.920058760882645e-03)
"3" (5.823780717167094e-01 -7.211169343229672e-03)
"8" (-4.238817169765858e+02 3.642027859789353e+01)
"9" (2.709352230564988e-01 4.675550967603088e-03)
"10" (6.140044145735823e-02 1.059592379138029e-03)
"11" (4.175308774908842e-02 2.751917403386426e-03)
"16" (2.927992379464931e+05 -2.516000726756755e+04)
"6" (6.907078252028676e-01 -5.935417972452040e-02)
"14" (-3.867531542476102e+02 3.323014455130392e+01)
"15" (-2.331554429877795e+02 2.003257723526458e+01)
"17" (2.924601001890782e+05 -2.513086847834127e+04)
"23" (2.924268910654365e+05 -2.512799903191302e+04)
"18" (2.924702086794178e+05 -2.513173706448609e+04)
"19" (2.925725937017718e+05 -2.514053465006685e+04)
"21" (2.924342974625851e+05 -2.512863551107549e+04)
"20" (1.493592600349655e-02 2.608631890575567e-03)
"5" (6.758234635926069e-04 -5.807428170567275e-05)
"24" (6.207251050351738e-04 -4.702307318650303e-05)
"Lf:1" (-1.786419661547021e-05 -2.078944707537980e-04)
"Vcc:p" (3.220093123470059e+00 -2.765975206728014e-01)
"Vee:p" (-3.220077172579924e+00 2.767831004522562e-01)
"Vin:p" (-2.772953226334515e-07 -4.781865366880391e-09)
"freq" 2.511886431509578e-01
"25" (0.000000000000000e+00 0.000000000000000e+00)
"26" (0.000000000000000e+00 0.000000000000000e+00)
"1" (1.000000000000000e+00 0.000000000000000e+00)
"22" (2.918766600950559e+05 -2.814103088639962e+04)
"2" (-1.171726641902559e-13 1.112431480678881e-14)
"4" (-1.478254216207934e-03 1.209529228161354e-04)
"12" (7.913235916090519e-01 -4.028025883436133e-03)
"13" (2.046096398643951e-01 4.248938679118837e-03)
"7" (2.856125703748674e-01 5.509939353061292e-03)
"3" (5.822191084680967e-01 -8.075738834251875e-03)
"8" (-4.230788606070898e+02 4.078681829290137e+01)
"9" (2.710382963770350e-01 5.236116782349099e-03)
"10" (6.142380034362966e-02 1.186630085162190e-03)
"11" (4.181375260899678e-02 3.081853183697598e-03)
"16" (2.922446053190415e+05 -2.817651902325904e+04)
"6" (6.893994088568701e-01 -6.647033752867557e-02)
"14" (-3.860206218733314e+02 3.721420920512696e+01)
"15" (-2.327138406046508e+02 2.243434468049141e+01)
"17" (2.919061098957828e+05 -2.814388677246832e+04)
"23" (2.918729636716767e+05 -2.814067698287777e+04)
"18" (2.919161992389582e+05 -2.814485949470442e+04)
"19" (2.920183903268159e+05 -2.815471183597126e+04)
"21" (2.918803560370173e+05 -2.814138978317099e+04)
"20" (1.499344065563609e-02 2.921387682738100e-03)
"5" (6.745432615593866e-04 -6.503698853939771e-05)
"24" (6.196885182915148e-04 -5.266081612121248e-05)
"Lf:1" (-1.783036093148752e-05 -1.849351652389941e-04)
"Vcc:p" (3.213993429274395e+00 -3.097837106774158e-01)
"Vee:p" (-3.213978004158505e+00 3.099436557768619e-01)
"Vin:p" (-2.774007200846348e-07 -5.355179422090738e-09)
"freq" 2.818382931264451e-01
"25" (0.000000000000000e+00 0.000000000000000e+00)
"26" (0.000000000000000e+00 0.000000000000000e+00)
"1" (1.000000000000000e+00 0.000000000000000e+00)
"22" (2.911822748557351e+05 -3.149964346667755e+04)
"2" (-9.285139236547064e-14 9.890524349221519e-15)
"4" (-1.475268837124606e-03 1.353884596433762e-04)
"12" (7.912242003476049e-01 -4.508767431929095e-03)
"13" (2.047144838842505e-01 4.756045797909195e-03)
"7" (2.857485349186926e-01 6.167545269522194e-03)
"3" (5.820198398697860e-01 -9.039571534123353e-03)
"8" (-4.220724389040644e+02 4.565469017577843e+01)
"9" (2.711675040793530e-01 5.861042233294377e-03)
"10" (6.145308190755071e-02 1.328253234192840e-03)
"11" (4.188979912733207e-02 3.449669588661725e-03)
"16" (2.915493448284199e+05 -3.153936315788496e+04)
"6" (6.877592417523262e-01 -7.440351712676906e-02)
"14" (-3.851023549109502e+02 4.165569323374053e+01)
"15" (-2.321602693316409e+02 2.511186442979087e+01)
"17" (2.912116546040321e+05 -3.150283634511432e+04)
"23" (2.911785872277246e+05 -3.149924674511212e+04)
"18" (2.912217199452535e+05 -3.150392515968645e+04)
"19" (2.913236679262574e+05 -3.151495335698968e+04)
"21" (2.911859620034731e+05 -3.150004462789404e+04)
"20" (1.506553822731519e-02 3.270051315015949e-03)
"5" (6.729384625453102e-04 -7.279909912083127e-05)
"24" (6.183891035576907e-04 -5.894584077812289e-05)
"Lf:1" (-1.778794466763556e-05 -1.644315180522385e-04)
"Vcc:p" (3.206347149249258e+00 -3.467775231328408e-01)
"Vee:p" (-3.206332383160152e+00 3.469139820392708e-01)
"Vin:p" (-2.775328412033679e-07 -5.994317544770010e-09)
"freq" 3.162277660168377e-01
"25" (0.000000000000000e+00 0.000000000000000e+00)
"26" (0.000000000000000e+00 0.000000000000000e+00)
"1" (1.000000000000000e+00 0.000000000000000e+00)
"22" (2.903127794671069e+05 -3.523764815457814e+04)
"2" (-7.353350979587781e-14 8.788119016541776e-15)
"4" (-1.471530604801374e-03 1.514546128064498e-04)
"12" (7.910997445864545e-01 -5.043814121145971e-03)
"13" (2.048457674810395e-01 5.320436265336000e-03)
"7" (2.859187870167627e-01 6.899434816290358e-03)
"3" (5.817703196935149e-01 -1.011227991603272e-02)
"8" (-4.208122176606433e+02 5.107244225509695e+01)
"9" (2.713292953948503e-01 6.556559702964621e-03)
"10" (6.148974769961740e-02 1.485874234304909e-03)
"11" (4.198502306537603e-02 3.859034885241352e-03)
"16" (2.906787534675234e+05 -3.528207781602404e+04)
"6" (6.857054571192196e-01 -8.323283729858108e-02)
"14" (-3.839525192807727e+02 4.659889221635693e+01)
"15" (-2.314670983915810e+02 2.809183978474953e+01)
"17" (2.903420714971439e+05 -3.524121649992110e+04)
"23" (2.903091028524821e+05 -3.523720383949942e+04)
"18" (2.903521067835957e+05 -3.524243452087817e+04)
"19" (2.904537503510318e+05 -3.525477140153523e+04)
"21" (2.903164556028930e+05 -3.523809641468458e+04)
"20" (1.515581737202238e-02 3.658099868122021e-03)
"5" (6.709289651317824e-04 -8.143802613228940e-05)
"24" (6.167620022672418e-04 -6.594082864318713e-05)
"Lf:1" (-1.773483068035051e-05 -1.461121345444320e-04)
"Vcc:p" (3.196772629451365e+00 -3.879479364368216e-01)
"Vee:p" (-3.196758688623766e+00 3.880627565066599e-01)
"Vin:p" (-2.776982806424258e-07 -6.705654261446124e-09)
"freq" 3.548133892335751e-01
"25" (0.000000000000000e+00 0.000000000000000e+00)
"26" (0.000000000000000e+00 0.000000000000000e+00)
"1" (1.000000000000000e+00 0.000000000000000e+00)
"22" (2.892255055899411e+05 -3.938922168703577e+04)
"2" (-5.819025518261864e-14 7.802528487288311e-15)
"4" (-1.466856074717571e-03 1.692982564510112e-04)
"12" (7.909441169664331e-01 -5.638057926809503e-03)
"13" (2.050099330731044e-01 5.947270309620043e-03)
"7" (2.861316813704001e-01 7.712299555321360e-03)
"3" (5.814583033527557e-01 -1.130367183378517e-02)
"8" (-4.192363546310872e+02 5.708960925842815e+01)
"9" (2.715316098328358e-01 7.329028207037375e-03)
"10" (6.153559700303930e-02 1.660934191771890e-03)
"11" (4.210409730275828e-02 4.313691888027322e-03)
"16" (2.895901091149866e+05 -3.943888279117896e+04)
"6" (6.831372705479016e-01 -9.303902488034675e-02)
"14" (-3.825146896384616e+02 5.208900202226100e+01)
"15" (-2.306003121321927e+02 3.140151678103884e+01)
"17" (2.892546879313315e+05 -3.939320739997269e+04)
"23" (2.892218427471740e+05 -3.938872456680772e+04)
"18" (2.892646856353345e+05 -3.939456892270068e+04)
"19" (2.893659485441444e+05 -3.940835927935224e+04)
"21" (2.892291679556629e+05 -3.938972231010540e+04)
"20" (1.526870831713927e-02 4.089081013834843e-03)
"5" (6.684161581951007e-04 -9.103275563652182e-05)
"24" (6.147273684419909e-04 -7.370973517785712e-05)
"Lf:1" (-1.766841254095777e-05 -1.297348698771593e-04)
"Vcc:p" (3.184800023960414e+00 -4.336714108595225e-01)
"Vee:p" (-3.184787115113979e+00 4.337661669529594e-01)
"Vin:p" (-2.779051569319624e-07 -7.495693784128382e-09)
"freq" 3.981071705534969e-01
"25" (0.000000000000000e+00 0.000000000000000e+00)
"26" (0.000000000000000e+00 0.000000000000000e+00)
"1" (1.000000000000000e+00 0.000000000000000e+00)
"22" (2.878682345941287e+05 -4.398803873335066e+04)
"2" (-4.600452298984311e-14 6.920754875567686e-15)
"4" (-1.461020742667781e-03 1.890640985976423e-04)
"12" (7.907498431415395e-01 -6.296318969947835e-03)
"13" (2.052148650606323e-01 6.641632346503713e-03)
"7" (2.863974426817509e-01 8.612732688894025e-03)
"3" (5.810688056020342e-01 -1.262341107770899e-02)
"8" (-4.172691656564377e+02 6.375499823522298e+01)
"9" (2.717841639726034e-01 8.184713288948221e-03)
"10" (6.159283182770117e-02 1.854853029916092e-03)
"11" (4.225274063187427e-02 4.817328415951530e-03)
"16" (2.882311273207099e+05 -4.404349517878633e+04)
"6" (6.799313394404753e-01 -1.039016208091126e-01)
"14" (-3.807198111707692e+02 5.817055458158908e+01)
"15" (-2.295182813078801e+02 3.506774120298164e+01)
"17" (2.878972800084564e+05 -4.399248709243253e+04)
"23" (2.878645889431137e+05 -4.398748316688594e+04)
"18" (2.879072307973549e+05 -4.399400757630100e+04)
"19" (2.880080185205435e+05 -4.400940799114390e+04)
"21" (2.878718797703371e+05 -4.398859740707582e+04)
"20" (1.540963288810608e-02 4.566490188795086e-03)
"5" (6.652793588615809e-04 -1.016611133690791e-04)
"24" (6.121874844843934e-04 -8.231557632079340e-05)
"Lf:1" (-1.758550038573029e-05 -1.150837158524285e-04)
"Vcc:p" (3.169854323048097e+00 -4.843188650258916e-01)
"Vee:p" (-3.169842702396779e+00 4.843948860823926e-01)
"Vin:p" (-2.781634057449217e-07 -8.370844965938836e-09)
"freq" 4.466835921509626e-01
"25" (0.000000000000000e+00 0.000000000000000e+00)
"26" (0.000000000000000e+00 0.000000000000000e+00)
"1" (1.000000000000000e+00 0.000000000000000e+00)
"22" (2.861775384935347e+05 -4.906552373351101e+04)
"2" (-3.632734540271772e-14 6.131208492257441e-15)
"4" (-1.453751911923989e-03 2.108871643213489e-04)
"12" (7.905078443076999e-01 -7.023095293713444e-03)
"13" (2.054701403249367e-01 7.408267026520457e-03)
"7" (2.867284905079903e-01 9.606886753241565e-03)
"3" (5.805836244330866e-01 -1.408051570424377e-02)
"8" (-4.148187200646768e+02 7.111415482194855e+01)
"9" (2.720987601738066e-01 9.129461724572775e-03)
"10" (6.166412687133706e-02 2.068955769400821e-03)
"11" (4.243789945254203e-02 5.373385838635070e-03)
"16" (2.865383001495355e+05 -4.912737901077574e+04)
"6" (6.759378442292637e-01 -1.158948508908070e-01)
"14" (-3.784840056200159e+02 6.488510608600174e+01)
"15" (-2.281704404559099e+02 3.911556493034883e+01)
"17" (2.862064133435079e+05 -4.907048317024671e+04)
"23" (2.861739142575710e+05 -4.906490367909017e+04)
"18" (2.862163056922095e+05 -4.907217916082865e+04)
"19" (2.863165014964081e+05 -4.908935721780991e+04)
"21" (2.861811622574803e+05 -4.906614654101583e+04)
"20" (1.558517677289508e-02 5.093589070347466e-03)
"5" (6.613719782295002e-04 -1.133957245479009e-04)
"24" (6.090236565411786e-04 -9.181715712317658e-05)
"Lf:1" (-1.748221957286898e-05 -1.019660687194531e-04)
"Vcc:p" (3.151237084243286e+00 -5.402364273142573e-01)
"Vee:p" (-3.151227068260766e+00 5.402948217718634e-01)
"Vin:p" (-2.784850955638019e-07 -9.337088697895503e-09)
"freq" 5.011872336272717e-01
"25" (0.000000000000000e+00 0.000000000000000e+00)
"26" (0.000000000000000e+00 0.000000000000000e+00)
"1" (1.000000000000000e+00 0.000000000000000e+00)
"22" (2.840771091241602e+05 -5.464836519265351e+04)
"2" (-2.864332602867423e-14 5.423564934103553e-15)
"4" (-1.444721509850202e-03 2.348821078861805e-04)
"12" (7.902071980485772e-01 -7.822207071519066e-03)
"13" (2.057872805030119e-01 8.251203921686046e-03)
"7" (2.871397664177501e-01 1.069998689613522e-02)
"3" (5.799808615968928e-01 -1.568264471183628e-02)
"8" (-4.117744190296214e+02 7.920576053252827e+01)
"9" (2.724895974746482e-01 1.016823898769622e-02)
"10" (6.175269997651591e-02 2.304367706827320e-03)
"11" (4.266793075431944e-02 5.984786849464158e-03)
"16" (2.844352232533630e+05 -5.471725641663784e+04)
"6" (6.709765418253995e-01 -1.290817544587837e-01)
"14" (-3.757063617599660e+02 7.226794984855538e+01)
"15" (-2.264959558990842e+02 4.356626430727340e+01)
"17" (2.841057720742068e+05 -5.465388681560725e+04)
"23" (2.840735114930979e+05 -5.464767426819474e+04)
"18" (2.841155918199694e+05 -5.465577578097862e+04)
"19" (2.842150522560375e+05 -5.467490840773391e+04)
"21" (2.840807062866687e+05 -5.464905855279186e+04)
"20" (1.580326299840303e-02 5.673147473251656e-03)
"5" (6.565176599199827e-04 -1.262982691397191e-04)
"24" (6.050930878663947e-04 -1.022644202058755e-04)
"Lf:1" (-1.735390861685471e-05 -9.021035074885768e-05)
"Vcc:p" (3.128108033936931e+00 -6.017180655735472e-01)
"Vee:p" (-3.128100011521108e+00 6.017597465926303e-01)
"Vin:p" (-2.788847455912832e-07 -1.039950497525904e-08)
"freq" 5.623413251903484e-01
"25" (0.000000000000000e+00 0.000000000000000e+00)
"26" (0.000000000000000e+00 0.000000000000000e+00)
"1" (1.000000000000000e+00 0.000000000000000e+00)
"22" (2.814762647720129e+05 -6.075510206879162e+04)
"2" (-2.254318353924989e-14 4.788642200340041e-15)
"4" (-1.433539667425136e-03 2.611285353924124e-04)
"12" (7.898349245808561e-01 -8.696307998829627e-03)
"13" (2.061799774691735e-01 9.173242109072655e-03)
"7" (2.876490264017696e-01 1.189566246424423e-02)
"3" (5.792344940488710e-01 -1.743511843456218e-02)
"8" (-4.080048311211779e+02 8.805668516800472e+01)
"9" (2.729735494710028e-01 1.130449405445627e-02)
"10" (6.186237510471457e-02 2.561870464204116e-03)
"11" (4.295276566511118e-02 6.653561617555075e-03)
"16" (2.818311006166758e+05 -6.083168970819084e+04)
"6" (6.648332382111271e-01 -1.435061212777493e-01)
"14" (-3.722669605351074e+02 8.034360208393059e+01)
"15" (-2.244225352138071e+02 4.843461877418443e+01)
"17" (2.815046653382180e+05 -6.076123884309690e+04)
"23" (2.814727000843138e+05 -6.075433365532803e+04)
"18" (2.815143951838171e+05 -6.076333889214186e+04)
"19" (2.816129450546088e+05 -6.078460950681491e+04)
"21" (2.814798289954481e+05 -6.075587263318236e+04)
"20" (1.607330698853645e-02 6.307088899807772e-03)
"5" (6.505068287333051e-04 -1.404115926342024e-04)
"24" (6.002260842491306e-04 -1.136920578092586e-04)
"Lf:1" (-1.719502796460455e-05 -7.966396367249922e-05)
"Vcc:p" (3.099468622997271e+00 -6.689679989824382e-01)
"Vee:p" (-3.099463069065726e+00 6.689937106528823e-01)
"Vin:p" (-2.793796098944645e-07 -1.156162341332717e-08)
"freq" 6.309573444801925e-01
"25" (0.000000000000000e+00 0.000000000000000e+00)
"26" (0.000000000000000e+00 0.000000000000000e+00)
"1" (1.000000000000000e+00 0.000000000000000e+00)
"22" (2.782689401864051e+05 -6.739159785429711e+04)
"2" (-1.770194164687522e-14 4.218296724815939e-15)
"4" (-1.419750376999864e-03 2.896515451297354e-04)
"12" (7.893758421891761e-01 -9.646237474476535e-03)
"13" (2.066642458311763e-01 1.017526680907791e-02)
"7" (2.882770386339560e-01 1.319506079368166e-02)
"3" (5.783140841117459e-01 -1.933961973611925e-02)
"8" (-4.033562284602101e+02 9.767542708202591e+01)
"9" (2.735703522496206e-01 1.253931723450701e-02)
"10" (6.199762492648881e-02 2.841711133309721e-03)
"11" (4.330402006118722e-02 7.380352123818192e-03)
"16" (2.786197332968011e+05 -6.747654975609944e+04)
"6" (6.572574028088242e-01 -1.591818011336727e-01)
"14" (-3.680255394370088e+02 8.911981675581880e+01)
"15" (-2.218656220580563e+02 5.372530275743286e+01)
"17" (2.782970171845563e+05 -6.739840332439546e+04)
"23" (2.782654161239970e+05 -6.739074525675370e+04)
"18" (2.783066361665411e+05 -6.740073276866987e+04)
"19" (2.784040631410723e+05 -6.742432684219020e+04)
"21" (2.782724637898395e+05 -6.739245234701267e+04)
"20" (1.640632142984813e-02 6.996020598342017e-03)
"5" (6.430943564609748e-04 -1.557492461587176e-04)
"24" (5.942241640085074e-04 -1.261110423657410e-04)
"Lf:1" (-1.699909829912323e-05 -7.019155530409973e-05)
"Vcc:p" (3.064150905213983e+00 -7.420508615331954e-01)
"Vee:p" (-3.064148395436633e+00 7.420612074027542e-01)
"Vin:p" (-2.799898695766620e-07 -1.282456212719278e-08)
"freq" 7.079457843841370e-01
"25" (0.000000000000000e+00 0.000000000000000e+00)
"26" (0.000000000000000e+00 0.000000000000000e+00)
"1" (1.000000000000000e+00 0.000000000000000e+00)
"22" (2.743336185105785e+05 -7.454527157964665e+04)
"2" (-1.386160203919421e-14 3.705337210544144e-15)
"4" (-1.402831199645671e-03 3.203969233910433e-04)
"12" (7.888125574829560e-01 -1.067019485344852e-02)
"13" (2.072584332079147e-01 1.125537833340560e-02)
"7" (2.890475967998126e-01 1.459571759781470e-02)
"3" (5.771847599415513e-01 -2.139253847655365e-02)
"8" (-3.976524880605398e+02 1.080437517656968e+02)
"9" (2.743026170541910e-01 1.387036669548273e-02)
"10" (6.216357369190687e-02 3.143359000412151e-03)
"11" (4.373500202191446e-02 8.163780359477422e-03)
"16" (2.746794512687041e+05 -7.463923972180687e+04)
"6" (6.479620076982210e-01 -1.760790772218938e-01)
"14" (-3.628214024879932e+02 9.857995655693190e+01)
"15" (-2.187283419056085e+02 5.942828656414303e+01)
"17" (2.743612984973445e+05 -7.455279800986420e+04)