HEADER
"PSFversion" "1.00"
"simulator" "spectre"
"version" "25.1.0.235.isr5"
"date" "12:22:37 PM, Sun Jul 12, 2026"
"design" "// uA741 open-loop gain rig (Gross/Roberts Ch.10 core), Spectre form."
"analysis type" "info"
"analysis name" "dcOpInfo"
"analysis description" "Circuit Information"
"xVecSorted" "unknown"
"tolerance.relative" 1.000000000000000e-03
"AnalysisName" "DC"
"AnalysisType" "dcOp"
"OpPointTemp.Value" 2.700000000000000e+01
"OpPointTemp.Units" "C"
TYPE
"bjt" STRUCT(
"trise" FLOAT DOUBLE PROP(
"units" "C"
"description" "Temperature rise from ambient"
)
"vbe" FLOAT DOUBLE PROP(
"units" "V"
"description" "Base-emitter voltage (alias=lx0)"
)
"vbc" FLOAT DOUBLE PROP(
"units" "V"
"description" "Base-collector voltage (alias=lx1)"
)
"vce" FLOAT DOUBLE PROP(
"units" "V"
"description" "Collector-emitter voltage"
)
"vsub" FLOAT DOUBLE PROP(
"units" "V"
"description" "Substrate junction voltage (alias=lx24)"
)
"ic" FLOAT DOUBLE PROP(
"units" "A"
"description" "Resistive collector current (alias=lx2)"
)
"ib" FLOAT DOUBLE PROP(
"units" "A"
"description" "Resistive base current (alias=lx3)"
)
"isub" FLOAT DOUBLE PROP(
"units" "A"
"description" "Resistive substrate current (alias=lv6)"
)
"pwr" FLOAT DOUBLE PROP(
"units" "W"
"description" "Power dissipation"
)
"betadc" FLOAT DOUBLE PROP(
"units" "A/A"
"description" "Ratio of resistive collector current to resistive base current (alias=lv10)"
)
"betaac" FLOAT DOUBLE PROP(
"units" "A/A"
"description" "Small-signal common-emitter current gain"
)
"gm" FLOAT DOUBLE PROP(
"units" "S"
"description" "Common-emitter transconductance (alias=lx6)"
)
"rpi" FLOAT DOUBLE PROP(
"units" "Ohm"
"description" "Common-emitter input resistance"
)
"ro" FLOAT DOUBLE PROP(
"units" "Ohm"
"description" "Common-emitter output resistance"
)
"rb" FLOAT DOUBLE PROP(
"units" "Ohm"
"description" "Parasitic base resistance"
)
"rc" FLOAT DOUBLE PROP(
"units" "Ohm"
"description" "Parasitic collector resistance"
)
"cpi" FLOAT DOUBLE PROP(
"units" "F"
"description" "Common-emitter input capacitance (alias=lx19)"
)
"cmu" FLOAT DOUBLE PROP(
"units" "F"
"description" "Common-base output capacitance (alias=lx20)"
)
"cmux" FLOAT DOUBLE PROP(
"units" "F"
"description" "External common-base output capacitance (alias=lx22)"
)
"csub" FLOAT DOUBLE PROP(
"units" "F"
"description" "Substrate capacitance (alias=lx21)"
)
"ft" FLOAT DOUBLE PROP(
"units" "Hz"
"description" "Unity small-signal current-gain frequency (alias=lv5)"
)
"gpi" FLOAT DOUBLE PROP(
"units" "S"
"description" "Gpi=ib/vbe constant vbc (alias=lx4)"
)
"gmu" FLOAT DOUBLE PROP(
"units" "S"
"description" "Gmu=ib/vbc constant vbe (alias=lx5)"
)
"g0" FLOAT DOUBLE PROP(
"units" "S"
"description" "G0=ic/vce constant vbe (alias=lx7)"
)
"gb" FLOAT DOUBLE PROP(
"units" "S"
"description" "1/Rbeff internal conductance (alias=lx16)"
)
"qbe" FLOAT DOUBLE PROP(
"description" "Base emitter charge (alias=lx8)"
)
"qbc" FLOAT DOUBLE PROP(
"description" "Base collector charge (alias=lx10)"
)
"qsc" FLOAT DOUBLE PROP(
"description" "Collector substrate charge"
)
"grc" FLOAT DOUBLE PROP(
"units" "S"
"description" "Collector conductance (alias=lv16)"
)
"rbb" FLOAT DOUBLE PROP(
"units" "Ohm"
"description" "Base resistance (alias=lv14)"
)
"log_ic" FLOAT DOUBLE PROP(
"units" "A"
"description" "Log(Ic) (alias=lv8)"
)
"log_ib" FLOAT DOUBLE PROP(
"units" "A"
"description" "Log(Ib) (alias=lv9)"
)
"gre" FLOAT DOUBLE PROP(
"units" "S"
"description" "Emitter conductance (alias=lv15)"
)
"re" FLOAT DOUBLE PROP(
"units" "Ohm"
"description" "  "
)
"region" INT BYTE PROP(
"description" "Estimated operating region. Spectre outputs a number (0-4) in rawfile"
)
"type" INT BYTE PROP(
"description" "Transistor type"
)
"struct" INT BYTE PROP(
"description" "Transistor structure. For pnp, default=lateral"
)
) PROP(
"key" "inst"
)
"capacitor" STRUCT(
"trise" FLOAT DOUBLE PROP(
"units" "C"
"description" "Temperature rise from ambient"
)
"v" FLOAT DOUBLE PROP(
"units" "V"
"description" "Voltage at operating point"
)
"cap" FLOAT DOUBLE PROP(
"units" "F"
"description" "Capacitance at operating point"
)
) PROP(
"key" "inst"
)
"inductor" STRUCT(
"trise" FLOAT DOUBLE PROP(
"units" "C"
"description" "Temperature rise from ambient"
)
"ind" FLOAT DOUBLE PROP(
"units" "H"
"description" "Inductance at operating point"
)
"i" FLOAT DOUBLE PROP(
"units" "A"
"description" "Current at operating point(alias=lx2)"
)
"pwr" FLOAT DOUBLE PROP(
"units" "W"
"description" "power dissipated"
)
"v" FLOAT DOUBLE PROP(
"units" "V"
"description" "Voltage at operating point"
)
) PROP(
"key" "inst"
)
"resistor" STRUCT(
"trise" FLOAT DOUBLE PROP(
"units" "C"
"description" "Temperature rise from ambient"
)
"v" FLOAT DOUBLE PROP(
"units" "V"
"description" "Voltage at operating point"
)
"i" FLOAT DOUBLE PROP(
"units" "A"
"description" "Current through the resistor"
)
"res" FLOAT DOUBLE PROP(
"units" "Ohm"
"description" "Resistance at operating point"
)
"pwr" FLOAT DOUBLE PROP(
"units" "W"
"description" "Power dissipation"
)
) PROP(
"key" "inst"
)
"vsource" STRUCT(
"v" FLOAT DOUBLE PROP(
"units" "V"
"description" "Voltage across the source"
)
"i" FLOAT DOUBLE PROP(
"units" "A"
"description" "Current through the source"
)
"pwr" FLOAT DOUBLE PROP(
"units" "W"
"description" "Power dissipation"
)
) PROP(
"key" "inst"
)
VALUE
"Q12" "bjt" (
0.000000000000000e+00
-6.576839637717118e-01
0.000000000000000e+00
-6.576839637717118e-01
1.434657036666592e+01
-7.081111871179635e-04
-1.418110074601125e-05
-0.000000000000000e+00
4.750400548841171e-04
4.993344309447456e+01
4.993344321173249e+01
2.736387659729290e-02
1.823849001755043e+03
7.051636281835180e+04
3.000000000000000e+02
1.000000000000000e+02
8.220523400140388e-10
1.066617270702442e-12
0.000000000000000e+00
5.610706242723250e-13
5.274996015838512e+06
5.482910038263724e-04
1.267124227164797e-12
1.418110577506631e-05
3.333333333333334e-03
-2.155062661511320e-11
-6.870224192453445e-14
0.000000000000000e+00
1.000000000000000e-02
3.000000000000000e+02
-3.149898544343392e+00
-4.848290057632149e+00
1.000000000000000e-01
1.000000000000000e+01
1
1
1
) PROP(
"model" "pnp"
)
"Q21" "bjt" (
0.000000000000000e+00
-4.608283113366550e-03
1.499570499635428e+01
-1.500031327946764e+01
-4.294194464552140e-03
-1.803438278673641e-14
2.460993702752487e-15
-0.000000000000000e+00
2.705100506471625e-13
-7.328089773885215e+00
6.499570499035482e+01
6.003746204285100e-13
1.082155017772051e+14
4.183990177314901e+15
3.000000000000000e+02
1.000000000000000e+02
3.012647770853762e-13
1.880945160742416e-13
0.000000000000000e+00
3.012464351343018e-12
1.953383309885740e-01
9.240820248274664e-15
0.000000000000000e+00
2.390062972475130e-16
3.333333333333334e-03
-1.385394416211265e-15
4.748123714387430e-12
0.000000000000000e+00
1.000000000000000e-02
3.000000000000000e+02
-1.374389871649513e+01
-1.460888949757852e+01
1.000000000000000e-01
1.000000000000000e+01
0
1
1
) PROP(
"model" "pnp"
)
"Q23" "bjt" (
0.000000000000000e+00
-6.120003176501884e-01
1.380886904103556e+01
-1.442086935868575e+01
-1.190128076353429e+00
-2.132426089138729e-04
-3.342960710660359e-06
-0.000000000000000e+00
3.077189697869094e-03
6.378854774866605e+01
6.378854769639828e+01
8.241362893971538e-03
7.736910063341027e+03
2.991360311245762e+05
3.000000000000000e+02
1.000000000000000e+02
2.480229537922101e-10
1.958523387904349e-13
0.000000000000000e+00
1.183148534282899e-11
5.282970483076343e+06
1.292505653824507e-04
0.000000000000000e+00
3.342960713360359e-06
3.333333333333334e-03
-6.678548941754576e-12
4.516476202395609e-12
0.000000000000000e+00
1.000000000000000e-02
3.000000000000000e+02
-3.671126012744486e+00
-5.475868727578438e+00
1.000000000000000e-01
1.000000000000000e+01
1
1
1
) PROP(
"model" "pnp"
)
"Q20" "bjt" (
0.000000000000000e+00
-5.748364513477701e-01
1.442086935868575e+01
-1.499570581003351e+01
-5.788697304326743e-01
-1.680680143563995e-04
-2.609122660952923e-06
-0.000000000000000e+00
2.521798318176610e-03
6.441552820480140e+01
6.441552800194941e+01
6.495488743238906e-03
9.912982126647123e+03
3.832705958447661e+05
1.000000000000000e+02
3.333333333333334e+01
1.969076796220782e-10
5.751174930734008e-13
0.000000000000000e+00
2.053282413188337e-11
5.233632728290567e+06
1.008778173131067e-04
0.000000000000000e+00
2.609122669052923e-06
1.000000000000000e-02
-5.816027036514896e-12
1.391387389400185e-11
0.000000000000000e+00
3.000000000000000e-02
1.000000000000000e+02
-3.774514930881014e+00
-5.583505503221441e+00
3.000000000000000e-01
3.333333333333333e+00
1
1
1
) PROP(
"model" "pnp"
)
"Q13A" "bjt" (
0.000000000000000e+00
-6.576839637717118e-01
1.375920242235424e+01
-1.441688638612595e+01
1.434636275943259e+01
-2.147380180390266e-04
-3.372282369361548e-06
-0.000000000000000e+00
3.098071504886152e-03
6.367735394580306e+01
6.367735393287199e+01
8.299151324816135e-03
7.669638407020807e+03
2.965350733631366e+05
1.200000000000000e+03
4.000000000000000e+02
2.492531109244445e-10
4.915404759236150e-14
0.000000000000000e+00
1.402686354763873e-13
5.296875280509580e+06
1.303842432890444e-04
0.000000000000000e+00
3.372282370036548e-06
8.333333333333334e-04
-6.518733590732096e-12
1.123664064659523e-12
0.000000000000000e+00
2.500000000000000e-03
1.200000000000000e+03
-3.668091059602464e+00
-5.472076067997081e+00
2.500000000000000e-02
4.000000000000000e+01
1
1
1
) PROP(
"model" "pnp"
)
"Q13B" "bjt" (
0.000000000000000e+00
-6.576839637717118e-01
1.553344699519273e+01
-1.619113095896444e+01
1.434633793164321e+01
-6.580808390839877e-04
-1.005475334228077e-05
-0.000000000000000e+00
1.066168589722695e-02
6.544972479003769e+01
6.544972477666981e+01
2.543365452471676e-02
2.572334248179140e+03
9.945544816037905e+04
4.000000000000000e+02
1.333333333333333e+02
7.638433943444374e-10
1.390549176118588e-13
0.000000000000000e+00
4.208062578161714e-13
5.297233167017180e+06
3.887519674816222e-04
0.000000000000000e+00
1.005475334430577e-05
2.500000000000000e-03
-1.997211958250608e-11
3.624680821264476e-12
0.000000000000000e+00
7.500000000000000e-03
4.000000000000000e+02
-3.181720754088678e+00
-4.997628578811675e+00
7.500000000000000e-02
1.333333333333333e+01
1
1
1
) PROP(
"model" "pnp"
)
"Q9" "bjt" (
0.000000000000000e+00
-5.463707579982167e-01
1.550302716297952e+01
-1.604939792097774e+01
1.445371788435557e+01
-1.935490908821826e-05
-2.954894677685788e-07
-0.000000000000000e+00
3.107960844856484e-04
6.550118091984456e+01
6.550118031287474e+01
7.480330602061933e-04
8.752997642703398e+04
3.384215344168536e+06
3.000000000000000e+02
1.000000000000000e+02
2.308323307641061e-11
1.851091378198239e-13
0.000000000000000e+00
5.590595921063057e-13
5.115505239209210e+06
1.142465748101294e-05
0.000000000000000e+00
2.954894704685788e-07
3.333333333333334e-03
-8.206576162980598e-13
4.842440297413549e-12
0.000000000000000e+00
1.000000000000000e-02
3.000000000000000e+02
-4.713208864261217e+00
-6.529457994212524e+00
1.000000000000000e-01
1.000000000000000e+01
1
1
1
) PROP(
"model" "pnp"
)
"Q8" "bjt" (
0.000000000000000e+00
-5.463707579982167e-01
0.000000000000000e+00
-5.463707579982167e-01
1.445371804469089e+01
-1.480000899782995e-05
-2.960084162361417e-07
-0.000000000000000e+00
8.248022477277572e-06
4.999860877612073e+01
4.999860880178975e+01
5.719241564837481e-04
8.737652364084913e+04
3.378277668307451e+06
3.000000000000000e+02
1.000000000000000e+02
1.780001655366953e-11
1.001267130010757e-12
0.000000000000000e+00
5.590595891131612e-13
4.829190559404501e+06
1.144472174368463e-05
1.020002595336363e-13
2.960088240766217e-07
3.333333333333334e-03
-6.840393597006883e-13
-1.392079066669938e-15
0.000000000000000e+00
1.000000000000000e-02
3.000000000000000e+02
-4.829738020570805e+00
-6.528695940721629e+00
1.000000000000000e-01
1.000000000000000e+01
1
1
1
) PROP(
"model" "pnp"
)
"Q4" "bjt" (
0.000000000000000e+00
-5.232438044678145e-01
1.269576771863873e+01
-1.321901152310654e+01
-1.049361432021964e+00
-7.626351954159367e-06
-1.216420244929642e-07
-0.000000000000000e+00
1.008764827969776e-04
6.269504298327819e+01
6.269504157112959e+01
2.947398254193356e-04
2.126254139412061e+05
8.220842936246628e+06
3.000000000000000e+02
1.000000000000000e+02
9.461512771392309e-12
2.037767736551682e-13
0.000000000000000e+00
1.068298093392530e-11
4.852364119807188e+06
4.703106658155709e-06
0.000000000000000e+00
1.216420271929642e-07
3.333333333333334e-03
-4.544644997873512e-13
4.298063676586736e-12
0.000000000000000e+00
1.000000000000000e-02
3.000000000000000e+02
-5.117683156022458e+00
-6.914916360487734e+00
1.000000000000000e-01
1.000000000000000e+01
1
1
1
) PROP(
"model" "pnp"
)
"Q3" "bjt" (
0.000000000000000e+00
-5.230487964026076e-01
1.288186758538873e+01
-1.340491638179134e+01
-1.049361705305950e+00
-7.591720263237026e-06
-1.207312642907588e-07
-0.000000000000000e+00
1.018295236651187e-04
6.288114605471021e+01
6.288114462774686e+01
2.934017537577661e-04
2.142293958244569e+05
8.282858491632854e+06
3.000000000000000e+02
1.000000000000000e+02
9.421193356599671e-12
2.023600751047443e-13
0.000000000000000e+00
1.068298316362868e-11
4.851299403692761e+06
4.667893480031174e-06
0.000000000000000e+00
1.207312669907588e-07
3.333333333333334e-03
-4.533058903362594e-13
4.335854871227070e-12
0.000000000000000e+00
1.000000000000000e-02
3.000000000000000e+02
-5.119659803000520e+00
-6.918180251437420e+00
1.000000000000000e-01
1.000000000000000e+01
1
1
1
) PROP(
"model" "pnp"
)
"Q11" "bjt" (
0.000000000000000e+00
6.492634772365307e-01
0.000000000000000e+00
6.492634772365307e-01
1.449712985060245e+01
7.319666393405172e-04
3.664104329019904e-06
-0.000000000000000e+00
4.776181745969786e-04
1.997668662279351e+02
1.997669431890966e+02
2.829453049034714e-02
7.058804520478496e+03
1.705706745652392e+05
2.000000000000000e+02
2.000000000000000e+02
1.151422103472430e-11
3.498883789718064e-13
0.000000000000000e+00
1.204023067870547e-10
3.253382778283118e+08
1.416670481664242e-04
5.396436052050051e-11
5.862672481942516e-06
5.000000000000000e-03
1.070016157544655e-12
4.705262035017332e-14
8.882069780483668e-10
5.000000000000000e-03
2.000000000000000e+02
-3.135508712220962e+00
-5.436032169045512e+00
5.000000000000000e-01
2.000000000000000e+00
1
0
0
) PROP(
"model" "npn"
)
"Q10" "bjt" (
0.000000000000000e+00
5.508343501785458e-01
-1.330133860178573e+01
1.385217295196428e+01
1.053317375646574e+00
1.959726004674513e-05
8.856481440293389e-08
-0.000000000000000e+00
2.715134200941235e-04
2.212759116457419e+02
2.212758989720487e+02
7.575569824323711e-04
2.920367990847257e+05
7.056978198122388e+06
2.000000000000000e+02
2.000000000000000e+02
1.760165928201840e-12
5.978853371912913e-14
0.000000000000000e+00
1.071525717888245e-11
6.593248520118561e+07
3.424225998689570e-06
0.000000000000000e+00
1.417037111246942e-07
5.000000000000000e-03
6.712543739391058e-13
-1.325835890959919e-12
6.847006982820963e-12
5.000000000000000e-03
2.000000000000000e+02
-4.707804644447628e+00
-7.052738783143372e+00
5.000000000000000e-01
2.000000000000000e+00
1
0
0
) PROP(
"model" "npn"
)
"Q24" "bjt" (
0.000000000000000e+00
8.136792377655411e-07
0.000000000000000e+00
8.136792377655411e-07
1.499999918632076e+01
3.146018300564829e-19
1.573009150282415e-21
-0.000000000000000e+00
2.572649021664034e-25
2.000000000000000e+02
2.000000000000000e+02
1.216109140325613e-17
5.172674543622519e+14
2.586418621618760e+12
2.000000000000000e+02
2.000000000000000e+02
1.000000383727264e-12
2.999999999999886e-13
0.000000000000000e+00
1.245051796794070e-10
4.733599306490113e-02
1.933235875496782e-15
1.933175057455692e-13
3.866350140079531e-13
5.000000000000000e-03
8.136793939564385e-19
0.000000000000000e+00
9.497852105642826e-10
5.000000000000000e-03
2.000000000000000e+02
-1.850223875539004e+01
-2.080326875105402e+01
5.000000000000000e-01
2.000000000000000e+00
0
0
0
) PROP(
"model" "npn"
)
"Q22" "bjt" (
0.000000000000000e+00
8.136792377655411e-07
-1.254833546704297e+00
1.254834360383535e+00
1.374516563987045e+01
1.510070454210149e-14
-4.999998426503780e-15
-0.000000000000000e+00
1.894887885703376e-14
-3.020141858856658e+00
2.020077336739173e+02
3.904485991528065e-13
5.172674493234902e+14
1.249960663832372e+16
2.000000000000000e+02
2.000000000000000e+02
1.000000383847397e-12
1.656090333367644e-13
0.000000000000000e+00
1.142670876414603e-10
5.332365752849794e-02
1.933235894328655e-15
0.000000000000000e+00
8.000251759395419e-17
5.000000000000000e-03
8.139313400169502e-19
-2.677934778393557e-13
7.999754850661699e-10
5.000000000000000e-03
2.000000000000000e+02
-1.382100278968637e+01
-1.430103013233615e+01
5.000000000000000e-01
2.000000000000000e+00
0
0
0
) PROP(
"model" "npn"
)
"Q15" "bjt" (
0.000000000000000e+00
4.609216135432927e-03
-5.781903045917315e-01
5.827995207271645e-01
-5.831136137550069e-01
1.700602237399642e-14
-4.990246280301052e-15
-0.000000000000000e+00
9.888100565365602e-15
-3.407852322064249e+00
2.009251044869712e+02
4.640992539017787e-13
4.328464657072486e+14
1.045959989016379e+16
2.000000000000000e+02
2.000000000000000e+02
1.002182479990518e-12
2.094649767747288e-13
0.000000000000000e+00
2.059741903370044e-12
6.097392941305858e-02
2.310288010244122e-15
0.000000000000000e+00
9.560595151831764e-17
5.000000000000000e-03
4.614238646910723e-15
-1.426327117992169e-13
-1.424258668858291e-12
5.000000000000000e-03
2.000000000000000e+02
-1.376939725387897e+01
-1.430187802040138e+01
5.000000000000000e-01
2.000000000000000e+00
0
0
0
) PROP(
"model" "npn"
)
"Q19" "bjt" (
0.000000000000000e+00
5.485883497984555e-01
0.000000000000000e+00
5.485883497984555e-01
-5.798647307772693e-01
1.624441548717339e-05
8.122417865852184e-08
-0.000000000000000e+00
8.956055723682937e-06
1.999948261153523e+02
1.999948277789589e+02
6.279360181959697e-04
3.184296475232081e+05
7.694727217898197e+06
2.000000000000000e+02
2.000000000000000e+02
1.712142258035884e-12
3.008855340648605e-13
0.000000000000000e+00
2.062781788978819e-12
4.874131291911443e+07
3.140411101096098e-06
2.190541705943838e-13
1.299591228749430e-07
5.000000000000000e-03
6.667383772277387e-13
9.712206414714596e-16
-1.417561873974886e-12
5.000000000000000e-03
2.000000000000000e+02
-4.789295910989495e+00
-7.090314671560391e+00
5.000000000000000e-01
2.000000000000000e+00
1
0
0
) PROP(
"model" "npn"
)
"Q18" "bjt" (
0.000000000000000e+00
6.136559053898455e-01
-5.485883497984555e-01
1.162244255188301e+00
-5.435835207761316e-01
1.976504653854927e-04
9.842424777792501e-07
-0.000000000000000e+00
2.303221041384078e-04
2.008148092037769e+02
2.008148081683463e+02
7.640284207389040e-03
2.627826662206622e+04
6.350061198368608e+05
2.000000000000000e+02
2.000000000000000e+02
4.243440654620723e-12
2.161734315154224e-13
0.000000000000000e+00
2.097669804491580e-12
2.539118452374480e+08
3.805426036587536e-05
0.000000000000000e+00
1.574787972526800e-06
5.000000000000000e-03
8.289854487216505e-13
-1.279656218897418e-13
-1.342094072173869e-12
5.000000000000000e-03
2.000000000000000e+02
-3.704102158735058e+00
-6.006897895685761e+00
5.000000000000000e-01
2.000000000000000e+00
1
0
0
) PROP(
"model" "npn"
)
"Q14" "bjt" (
0.000000000000000e+00
5.781903045917315e-01
-1.441688638612595e+01
1.499507669071768e+01
-1.498867001448508e+01
1.699497683274832e-04
7.619392449131700e-07
-0.000000000000000e+00
2.548850355524411e-03
2.230489759676975e+02
2.230489715130221e+02
6.569633959625224e-03
3.394520763033938e+04
8.202753588890841e+05
6.666666666666667e+01
6.666666666666667e+01
6.881595961924776e-12
1.725924640880305e-13
0.000000000000000e+00
1.647998847202907e-12
1.466779802113304e+08
2.945923945700733e-05
0.000000000000000e+00
1.219102816101072e-06
1.500000000000000e-02
2.176195261761463e-12
-4.172450195655976e-12
-4.175654061104337e-11
1.500000000000000e-02
6.666666666666667e+01
-3.769679423103070e+00
-6.118079656811173e+00
1.500000000000000e+00
6.666666666666666e-01
1
0
0
) PROP(
"model" "npn"
)
"Q17" "bjt" (
0.000000000000000e+00
6.437834469747390e-01
-1.309864358602223e+01
1.374242703299696e+01
1.323415718278544e+00
6.614238139861630e-04
2.996296278355209e-06
-0.000000000000000e+00
9.091497467537641e-03
2.207471333072729e+02
2.207471329335539e+02
2.556816631785851e-02
8.632052353366576e+03
2.085908538022497e+05
2.000000000000000e+02
2.000000000000000e+02
1.055345181421991e-11
6.051501091393669e-14
0.000000000000000e+00
1.291896913652454e-11
3.725977792380192e+08
1.158473047965228e-04
0.000000000000000e+00
4.794074053448334e-06
5.000000000000000e-03
1.036968473790982e-12
-1.305957731888967e-12
1.003878966141113e-11
5.000000000000000e-03
2.000000000000000e+02
-3.179520172747689e+00
-5.523415245147164e+00
5.000000000000000e-01
2.000000000000000e+00
1
0
0
) PROP(
"model" "npn"
)
"Q16" "bjt" (
0.000000000000000e+00
5.446089053702039e-01
-2.874516563961647e+01
2.928977454498667e+01
-1.499657376428766e+01
1.713114982076584e-05
6.964255075002533e-08
-0.000000000000000e+00
5.018054438999513e-04
2.459868232319105e+02
2.459868053228397e+02
6.622388024982237e-04
3.713847960838630e+05
8.974397806344906e+06
2.000000000000000e+02
2.000000000000000e+02
1.719426050312767e-12
4.110833768404916e-14
0.000000000000000e+00
5.491930230989884e-13
5.969281224952563e+07
2.692625036201505e-06
0.000000000000000e+00
1.114280892800405e-07
5.000000000000000e-03
6.611203678884929e-13
-2.078270574229859e-12
-1.392318810749517e-11
5.000000000000000e-03
2.000000000000000e+02
-4.766213486768572e+00
-7.157125330656751e+00
5.000000000000000e-01
2.000000000000000e+00
1
0
0
) PROP(
"model" "npn"
)
"Q7" "bjt" (
0.000000000000000e+00
5.325207209463940e-01
-2.893126550636647e+01
2.946378622731287e+01
-1.499784884380473e+01
1.075575235874706e-05
4.367168674317235e-08
-0.000000000000000e+00
3.169284442901488e-04
2.462866255201058e+02
2.462865969261264e+02
4.157851687818142e-04
5.922414571673425e+05
1.431133016233900e+07
2.000000000000000e+02
2.000000000000000e+02
1.618847341288762e-12
4.097748682212373e-14
0.000000000000000e+00
5.491704594315866e-13
3.979321423585802e+07
1.688500505829064e-06
0.000000000000000e+00
6.987470686907575e-08
5.000000000000000e-03
6.410196604032436e-13
-2.085960754980953e-12
-1.392388835788432e-11
5.000000000000000e-03
2.000000000000000e+02
-4.968359205562510e+00
-7.359800033883438e+00
5.000000000000000e-01
2.000000000000000e+00
1
0
0
) PROP(
"model" "npn"
)
"Q6" "bjt" (
0.000000000000000e+00
5.286194556399213e-01
-7.186205876964014e-01
1.247240043336323e+00
1.374667698942159e+01
7.556748308506307e-06
3.756821009628998e-08
-0.000000000000000e+00
9.444938374553557e-06
2.011474139741507e+02
2.011473868023930e+02
2.921102375719462e-04
6.884592809063931e+05
1.663640387402651e+07
2.000000000000000e+02
2.000000000000000e+02
1.570943017391691e-12
1.976488461220624e-13
0.000000000000000e+00
1.142794186281875e-10
2.612172144354383e+07
1.452518729478739e-06
0.000000000000000e+00
6.010914423406395e-08
5.000000000000000e-03
6.341725005601650e-13
-1.708883276700778e-13
8.001481918960022e-10
5.000000000000000e-03
2.000000000000000e+02
-5.121665042523152e+00
-7.425179496015191e+00
5.000000000000000e-01
2.000000000000000e+00
1
0
0
) PROP(
"model" "npn"
)
"Q5" "bjt" (
0.000000000000000e+00
5.286281020489625e-01
-5.325207209463940e-01
1.061148822995357e+00
1.393277512433605e+01
7.548089316869591e-06
3.758079268280347e-08
-0.000000000000000e+00
8.029512357569396e-06
2.008496569132643e+02
2.008496297906158e+02
2.917754305067113e-04
6.882287749303195e+05
1.663083376898226e+07
2.000000000000000e+02
2.000000000000000e+02
1.570836107019617e-12
2.139863211305572e-13
0.000000000000000e+00
1.157977792416204e-10
2.584251757909984e+07
1.453005216326862e-06
0.000000000000000e+00
6.012927637248555e-08
5.000000000000000e-03
6.341821904419862e-13
-1.326463947646237e-13
8.215566606009606e-10
5.000000000000000e-03
2.000000000000000e+02
-5.122162969451184e+00
-7.425034063667725e+00
5.000000000000000e-01
2.000000000000000e+00
1
0
0
) PROP(
"model" "npn"
)
"Q2" "bjt" (
0.000000000000000e+00
5.264682096568045e-01
-1.445331514885490e+01
1.497978335851171e+01
-1.445208655437530e+01
7.713424706212641e-06
3.457029917953861e-08
-0.000000000000000e+00
1.155636312147735e-04
2.231228797342328e+02
2.231228469960036e+02
2.981726923121708e-04
7.481619546307549e+05
1.807910037036841e+07
2.000000000000000e+02
2.000000000000000e+02
1.570513924918179e-12
5.744221952955076e-14
0.000000000000000e+00
5.590900483098771e-13
2.909462763318479e+07
1.336608997303981e-06
0.000000000000000e+00
5.531248676726178e-08
5.000000000000000e-03
6.310710129489272e-13
-1.393471008098323e-12
-1.362148918997070e-11
5.000000000000000e-03
2.000000000000000e+02
-5.112752755440720e+00
-7.461296861954253e+00
5.000000000000000e-01
2.000000000000000e+00
1
0
0
) PROP(
"model" "npn"
)
"Q1" "bjt" (
0.000000000000000e+00
5.263491245751297e-01
-1.445362924200178e+01
1.497997836657691e+01
-1.445209363113428e+01
7.678040037088497e-06
3.441163165164979e-08
-0.000000000000000e+00
1.150349861854921e-04
2.231233937063368e+02
2.231233608170805e+02
2.968048509848731e-04
7.516116309373758e+05
1.816246072277160e+07
2.000000000000000e+02
2.000000000000000e+02
1.569894075719675e-12
5.744160471604033e-14
0.000000000000000e+00
5.590899161791916e-13
2.897245742367268e+07
1.330474355157125e-06
0.000000000000000e+00
5.505861872263967e-08
5.000000000000000e-03
6.308841927466954e-13
-1.393489454889038e-12
-1.362149314651575e-11
5.000000000000000e-03
2.000000000000000e+02
-5.114749627587034e+00
-7.463294734513396e+00
5.000000000000000e-01
2.000000000000000e+00
1
0
0
) PROP(
"model" "npn"
)
"Cc" "capacitor" (
nan
-1.255403468065202e+01
3.000000000000000e-11
) PROP(
"model" "capacitor"
)
"Cf" "capacitor" (
nan
3.140931468817190e-04
1.000000000000000e+09
) PROP(
"model" "capacitor"
)
"Lf" "inductor" (
nan
1.000000000000000e+09
3.455636927218120e-08
0.000000000000000e+00
0.000000000000000e+00
) PROP(
"model" "inductor"
)
"R5" "resistor" (
nan
2.869305255899176e+01
7.357192963844040e-04
3.900000000000000e+04
2.111003243982214e-02
) PROP(
"model" "resistor"
)
"R4" "resistor" (
nan
9.842912705798490e-02
1.968582541159698e-05
5.000000000000000e+03
1.937658610679387e-06
) PROP(
"model" "resistor"
)
"R11" "resistor" (
nan
8.136792377655411e-07
1.627358475531082e-11
4.999999999999999e+04
1.324147803941424e-17
) PROP(
"model" "resistor"
)
"R10" "resistor" (
nan
6.136559053898455e-01
1.534139763474614e-05
4.000000000000000e+04
9.414339255495776e-06
) PROP(
"model" "resistor"
)
"R7" "resistor" (
nan
-4.608283113366550e-03
-1.706771523469093e-04
2.700000000000000e+01
7.865286389977519e-07
) PROP(
"model" "resistor"
)
"R6" "resistor" (
nan
-4.609216135432927e-03
-1.707117087197380e-04
2.700000000000000e+01
7.868471623383426e-07
) PROP(
"model" "resistor"
)
"R9" "resistor" (
nan
7.102254550133313e-01
1.420450910026663e-05
4.999999999999999e+04
1.008840393897787e-05
) PROP(
"model" "resistor"
)
"R8" "resistor" (
nan
6.644200803859235e-02
6.644200803859235e-04
1.000000000000000e+02
4.414540432200371e-05
) PROP(
"model" "resistor"
)
"R3" "resistor" (
nan
5.362137726871339e-01
1.072427545374268e-05
4.999999999999999e+04
5.750504200387386e-06
) PROP(
"model" "resistor"
)
"R2" "resistor" (
nan
7.594317047212584e-03
7.594317047212584e-06
1.000000000000000e+03
5.767365141358366e-08
) PROP(
"model" "resistor"
)
"R1" "resistor" (
nan
7.585670638171393e-03
7.585670638171393e-06
1.000000000000000e+03
5.754239903081559e-08
) PROP(
"model" "resistor"
)
"Vin" "vsource" (
0.000000000000000e+00
-3.439770519806434e-08
-0.000000000000000e+00
) PROP(
"model" "vsource"
)
"Vee" "vsource" (
-1.500000000000000e+01
1.841155739651870e-03
-2.761733609477805e-02
) PROP(
"model" "vsource"
)
"Vcc" "vsource" (
1.500000000000000e+01
-1.841121341952399e-03
-2.761682012928599e-02
) PROP(
"model" "vsource"
)
END
